# vtk DataFile Version 2.0
vtk output
ASCII
DATASET STRUCTURED_GRID
DIMENSIONS 50 10 30
POINTS 15000 float
0 0 0
1 0 0
2 0 0
3 0 0
4 0 0
5 0 0
6 0 0
7 0 0
8 0 0
9 0 0
10 0 0
11 0 0
12 0 0
13 0 0
14 0 0
15 0 0
16 0 0
17 0 0
18 0 0
19 0 0
20 0 0
21 0 0
22 0 0
23 0 0
24 0 0
25 0 0
26 0 0
27 0 0
28 0 0
29 0 0
30 0 0
31 0 0
32 0 0
33 0 0
34 0 0
35 0 0
36 0 0
37 0 0
38 0 0
39 0 0
40 0 0
41 0 0
42 0 0
43 0 0
44 0 0
45 0 0
46 0 0
47 0 0
48 0 0
49 0 0
0 1 0
1 1 0
2 1 0
3 1 0
4 1 0
5 1 0
6 1 0
7 1 0
8 1 0
9 1 0
10 1 0
11 1 0
12 1 0
13 1 0
14 1 0
15 1 0
16 1 0
17 1 0
18 1 0
19 1 0
20 1 0
21 1 0
22 1 0
23 1 0
24 1 0
25 1 0
26 1 0
27 1 0
28 1 0
29 1 0
30 1 0
31 1 0
32 1 0
33 1 0
34 1 0
35 1 0
36 1 0
37 1 0
38 1 0
39 1 0
40 1 0
41 1 0
42 1 0
43 1 0
44 1 0
45 1 0
46 1 0
47 1 0
48 1 0
49 1 0
0 2 0
1 2 0
2 2 0
3 2 0
4 2 0
5 2 0
6 2 0
7 2 0
8 2 0
9 2 0
10 2 0
11 2 0
12 2 0
13 2 0
14 2 0
15 2 0
16 2 0
17 2 0
18 2 0
19 2 0
20 2 0
21 2 0
22 2 0
23 2 0
24 2 0
25 2 0
26 2 0
27 2 0
28 2 0
29 2 0
30 2 0
31 2 0
32 2 0
33 2 0
34 2 0
35 2 0
36 2 0
37 2 0
38 2 0
39 2 0
40 2 0
41 2 0
42 2 0
43 2 0
44 2 0
45 2 0
46 2 0
47 2 0
48 2 0
49 2 0
0 3 0
1 3 0
2 3 0
3 3 0
4 3 0
5 3 0
6 3 0
7 3 0
8 3 0
9 3 0
10 3 0
11 3 0
12 3 0
13 3 0
14 3 0
15 3 0
16 3 0
17 3 0
18 3 0
19 3 0
20 3 0
21 3 0
22 3 0
23 3 0
24 3 0
25 3 0
26 3 0
27 3 0
28 3 0
29 3 0
30 3 0
31 3 0
32 3 0
33 3 0
34 3 0
35 3 0
36 3 0
37 3 0
38 3 0
39 3 0
40 3 0
41 3 0
42 3 0
43 3 0
44 3 0
45 3 0
46 3 0
47 3 0
48 3 0
49 3 0
0 4 0
1 4 0
2 4 0
3 4 0
4 4 0
5 4 0
6 4 0
7 4 0
8 4 0
9 4 0
10 4 0
11 4 0
12 4 0
13 4 0
14 4 0
15 4 0
16 4 0
17 4 0
18 4 0
19 4 0
20 4 0
21 4 0
22 4 0
23 4 0
24 4 0
25 4 0
26 4 0
27 4 0
28 4 0
29 4 0
30 4 0
31 4 0
32 4 0
33 4 0
34 4 0
35 4 0
36 4 0
37 4 0
38 4 0
39 4 0
40 4 0
41 4 0
42 4 0
43 4 0
44 4 0
45 4 0
46 4 0
47 4 0
48 4 0
49 4 0
0 5 0
1 5 0
2 5 0
3 5 0
4 5 0
5 5 0
6 5 0
7 5 0
8 5 0
9 5 0
10 5 0
11 5 0
12 5 0
13 5 0
14 5 0
15 5 0
16 5 0
17 5 0
18 5 0
19 5 0
20 5 0
21 5 0
22 5 0
23 5 0
24 5 0
25 5 0
26 5 0
27 5 0
28 5 0
29 5 0
30 5 0
31 5 0
32 5 0
33 5 0
34 5 0
35 5 0
36 5 0
37 5 0
38 5 0
39 5 0
40 5 0
41 5 0
42 5 0
43 5 0
44 5 0
45 5 0
46 5 0
47 5 0
48 5 0
49 5 0
0 6 0
1 6 0
2 6 0
3 6 0
4 6 0
5 6 0
6 6 0
7 6 0
8 6 0
9 6 0
10 6 0
11 6 0
12 6 0
13 6 0
14 6 0
15 6 0
16 6 0
17 6 0
18 6 0
19 6 0
20 6 0
21 6 0
22 6 0
23 6 0
24 6 0
25 6 0
26 6 0
27 6 0
28 6 0
29 6 0
30 6 0
31 6 0
32 6 0
33 6 0
34 6 0
35 6 0
36 6 0
37 6 0
38 6 0
39 6 0
40 6 0
41 6 0
42 6 0
43 6 0
44 6 0
45 6 0
46 6 0
47 6 0
48 6 0
49 6 0
0 7 0
1 7 0
2 7 0
3 7 0
4 7 0
5 7 0
6 7 0
7 7 0
8 7 0
9 7 0
10 7 0
11 7 0
12 7 0
13 7 0
14 7 0
15 7 0
16 7 0
17 7 0
18 7 0
19 7 0
20 7 0
21 7 0
22 7 0
23 7 0
24 7 0
25 7 0
26 7 0
27 7 0
28 7 0
29 7 0
30 7 0
31 7 0
32 7 0
33 7 0
34 7 0
35 7 0
36 7 0
37 7 0
38 7 0
39 7 0
40 7 0
41 7 0
42 7 0
43 7 0
44 7 0
45 7 0
46 7 0
47 7 0
48 7 0
49 7 0
0 8 0
1 8 0
2 8 0
3 8 0
4 8 0
5 8 0
6 8 0
7 8 0
8 8 0
9 8 0
10 8 0
11 8 0
12 8 0
13 8 0
14 8 0
15 8 0
16 8 0
17 8 0
18 8 0
19 8 0
20 8 0
21 8 0
22 8 0
23 8 0
24 8 0
25 8 0
26 8 0
27 8 0
28 8 0
29 8 0
30 8 0
31 8 0
32 8 0
33 8 0
34 8 0
35 8 0
36 8 0
37 8 0
38 8 0
39 8 0
40 8 0
41 8 0
42 8 0
43 8 0
44 8 0
45 8 0
46 8 0
47 8 0
48 8 0
49 8 0
0 9 0
1 9 0
2 9 0
3 9 0
4 9 0
5 9 0
6 9 0
7 9 0
8 9 0
9 9 0
10 9 0
11 9 0
12 9 0
13 9 0
14 9 0
15 9 0
16 9 0
17 9 0
18 9 0
19 9 0
20 9 0
21 9 0
22 9 0
23 9 0
24 9 0
25 9 0
26 9 0
27 9 0
28 9 0
29 9 0
30 9 0
31 9 0
32 9 0
33 9 0
34 9 0
35 9 0
36 9 0
37 9 0
38 9 0
39 9 0
40 9 0
41 9 0
42 9 0
43 9 0
44 9 0
45 9 0
46 9 0
47 9 0
48 9 0
49 9 0
0 0 1
1 0 1
2 0 1
3 0 1
4 0 1
5 0 1
6 0 1
7 0 1
8 0 1
9 0 1
10 0 1
11 0 1
12 0 1
13 0 1
14 0 1
15 0 1
16 0 1
17 0 1
18 0 1
19 0 1
20 0 1
21 0 1
22 0 1
23 0 1
24 0 1
25 0 1
26 0 1
27 0 1
28 0 1
29 0 1
30 0 1
31 0 1
32 0 1
33 0 1
34 0 1
35 0 1
36 0 1
37 0 1
38 0 1
39 0 1
40 0 1
41 0 1
42 0 1
43 0 1
44 0 1
45 0 1
46 0 1
47 0 1
48 0 1
49 0 1
0 1 1
1 1 1
2 1 1
3 1 1
4 1 1
5 1 1
6 1 1
7 1 1
8 1 1
9 1 1
10 1 1
11 1 1
12 1 1
13 1 1
14 1 1
15 1 1
16 1 1
17 1 1
18 1 1
19 1 1
20 1 1
21 1 1
22 1 1
23 1 1
24 1 1
25 1 1
26 1 1
27 1 1
28 1 1
29 1 1
30 1 1
31 1 1
32 1 1
33 1 1
34 1 1
35 1 1
36 1 1
37 1 1
38 1 1
39 1 1
40 1 1
41 1 1
42 1 1
43 1 1
44 1 1
45 1 1
46 1 1
47 1 1
48 1 1
49 1 1
0 2 1
1 2 1
2 2 1
3 2 1
4 2 1
5 2 1
6 2 1
7 2 1
8 2 1
9 2 1
10 2 1
11 2 1
12 2 1
13 2 1
14 2 1
15 2 1
16 2 1
17 2 1
18 2 1
19 2 1
20 2 1
21 2 1
22 2 1
23 2 1
24 2 1
25 2 1
26 2 1
27 2 1
28 2 1
29 2 1
30 2 1
31 2 1
32 2 1
33 2 1
34 2 1
35 2 1
36 2 1
37 2 1
38 2 1
39 2 1
40 2 1
41 2 1
42 2 1
43 2 1
44 2 1
45 2 1
46 2 1
47 2 1
48 2 1
49 2 1
0 3 1
1 3 1
2 3 1
3 3 1
4 3 1
5 3 1
6 3 1
7 3 1
8 3 1
9 3 1
10 3 1
11 3 1
12 3 1
13 3 1
14 3 1
15 3 1
16 3 1
17 3 1
18 3 1
19 3 1
20 3 1
21 3 1
22 3 1
23 3 1
24 3 1
25 3 1
26 3 1
27 3 1
28 3 1
29 3 1
30 3 1
31 3 1
32 3 1
33 3 1
34 3 1
35 3 1
36 3 1
37 3 1
38 3 1
39 3 1
40 3 1
41 3 1
42 3 1
43 3 1
44 3 1
45 3 1
46 3 1
47 3 1
48 3 1
49 3 1
0 4 1
1 4 1
2 4 1
3 4 1
4 4 1
5 4 1
6 4 1
7 4 1
8 4 1
9 4 1
10 4 1
11 4 1
12 4 1
13 4 1
14 4 1
15 4 1
16 4 1
17 4 1
18 4 1
19 4 1
20 4 1
21 4 1
22 4 1
23 4 1
24 4 1
25 4 1
26 4 1
27 4 1
28 4 1
29 4 1
30 4 1
31 4 1
32 4 1
33 4 1
34 4 1
35 4 1
36 4 1
37 4 1
38 4 1
39 4 1
40 4 1
41 4 1
42 4 1
43 4 1
44 4 1
45 4 1
46 4 1
47 4 1
48 4 1
49 4 1
0 5 1
1 5 1
2 5 1
3 5 1
4 5 1
5 5 1
6 5 1
7 5 1
8 5 1
9 5 1
10 5 1
11 5 1
12 5 1
13 5 1
14 5 1
15 5 1
16 5 1
17 5 1
18 5 1
19 5 1
20 5 1
21 5 1
22 5 1
23 5 1
24 5 1
25 5 1
26 5 1
27 5 1
28 5 1
29 5 1
30 5 1
31 5 1
32 5 1
33 5 1
34 5 1
35 5 1
36 5 1
37 5 1
38 5 1
39 5 1
40 5 1
41 5 1
42 5 1
43 5 1
44 5 1
45 5 1
46 5 1
47 5 1
48 5 1
49 5 1
0 6 1
1 6 1
2 6 1
3 6 1
4 6 1
5 6 1
6 6 1
7 6 1
8 6 1
9 6 1
10 6 1
11 6 1
12 6 1
13 6 1
14 6 1
15 6 1
16 6 1
17 6 1
18 6 1
19 6 1
20 6 1
21 6 1
22 6 1
23 6 1
24 6 1
25 6 1
26 6 1
27 6 1
28 6 1
29 6 1
30 6 1
31 6 1
32 6 1
33 6 1
34 6 1
35 6 1
36 6 1
37 6 1
38 6 1
39 6 1
40 6 1
41 6 1
42 6 1
43 6 1
44 6 1
45 6 1
46 6 1
47 6 1
48 6 1
49 6 1
0 7 1
1 7 1
2 7 1
3 7 1
4 7 1
5 7 1
6 7 1
7 7 1
8 7 1
9 7 1
10 7 1
11 7 1
12 7 1
13 7 1
14 7 1
15 7 1
16 7 1
17 7 1
18 7 1
19 7 1
20 7 1
21 7 1
22 7 1
23 7 1
24 7 1
25 7 1
26 7 1
27 7 1
28 7 1
29 7 1
30 7 1
31 7 1
32 7 1
33 7 1
34 7 1
35 7 1
36 7 1
37 7 1
38 7 1
39 7 1
40 7 1
41 7 1
42 7 1
43 7 1
44 7 1
45 7 1
46 7 1
47 7 1
48 7 1
49 7 1
0 8 1
1 8 1
2 8 1
3 8 1
4 8 1
5 8 1
6 8 1
7 8 1
8 8 1
9 8 1
10 8 1
11 8 1
12 8 1
13 8 1
14 8 1
15 8 1
16 8 1
17 8 1
18 8 1
19 8 1
20 8 1
21 8 1
22 8 1
23 8 1
24 8 1
25 8 1
26 8 1
27 8 1
28 8 1
29 8 1
30 8 1
31 8 1
32 8 1
33 8 1
34 8 1
35 8 1
36 8 1
37 8 1
38 8 1
39 8 1
40 8 1
41 8 1
42 8 1
43 8 1
44 8 1
45 8 1
46 8 1
47 8 1
48 8 1
49 8 1
0 9 1
1 9 1
2 9 1
3 9 1
4 9 1
5 9 1
6 9 1
7 9 1
8 9 1
9 9 1
10 9 1
11 9 1
12 9 1
13 9 1
14 9 1
15 9 1
16 9 1
17 9 1
18 9 1
19 9 1
20 9 1
21 9 1
22 9 1
23 9 1
24 9 1
25 9 1
26 9 1
27 9 1
28 9 1
29 9 1
30 9 1
31 9 1
32 9 1
33 9 1
34 9 1
35 9 1
36 9 1
37 9 1
38 9 1
39 9 1
40 9 1
41 9 1
42 9 1
43 9 1
44 9 1
45 9 1
46 9 1
47 9 1
48 9 1
49 9 1
0 0 2
1 0 2
2 0 2
3 0 2
4 0 2
5 0 2
6 0 2
7 0 2
8 0 2
9 0 2
10 0 2
11 0 2
12 0 2
13 0 2
14 0 2
15 0 2
16 0 2
17 0 2
18 0 2
19 0 2
20 0 2
21 0 2
22 0 2
23 0 2
24 0 2
25 0 2
26 0 2
27 0 2
28 0 2
29 0 2
30 0 2
31 0 2
32 0 2
33 0 2
34 0 2
35 0 2
36 0 2
37 0 2
38 0 2
39 0 2
40 0 2
41 0 2
42 0 2
43 0 2
44 0 2
45 0 2
46 0 2
47 0 2
48 0 2
49 0 2
0 1 2
1 1 2
2 1 2
3 1 2
4 1 2
5 1 2
6 1 2
7 1 2
8 1 2
9 1 2
10 1 2
11 1 2
12 1 2
13 1 2
14 1 2
15 1 2
16 1 2
17 1 2
18 1 2
19 1 2
20 1 2
21 1 2
22 1 2
23 1 2
24 1 2
25 1 2
26 1 2
27 1 2
28 1 2
29 1 2
30 1 2
31 1 2
32 1 2
33 1 2
34 1 2
35 1 2
36 1 2
37 1 2
38 1 2
39 1 2
40 1 2
41 1 2
42 1 2
43 1 2
44 1 2
45 1 2
46 1 2
47 1 2
48 1 2
49 1 2
0 2 2
1 2 2
2 2 2
3 2 2
4 2 2
5 2 2
6 2 2
7 2 2
8 2 2
9 2 2
10 2 2
11 2 2
12 2 2
13 2 2
14 2 2
15 2 2
16 2 2
17 2 2
18 2 2
19 2 2
20 2 2
21 2 2
22 2 2
23 2 2
24 2 2
25 2 2
26 2 2
27 2 2
28 2 2
29 2 2
30 2 2
31 2 2
32 2 2
33 2 2
34 2 2
35 2 2
36 2 2
37 2 2
38 2 2
39 2 2
40 2 2
41 2 2
42 2 2
43 2 2
44 2 2
45 2 2
46 2 2
47 2 2
48 2 2
49 2 2
0 3 2
1 3 2
2 3 2
3 3 2
4 3 2
5 3 2
6 3 2
7 3 2
8 3 2
9 3 2
10 3 2
11 3 2
12 3 2
13 3 2
14 3 2
15 3 2
16 3 2
17 3 2
18 3 2
19 3 2
20 3 2
21 3 2
22 3 2
23 3 2
24 3 2
25 3 2
26 3 2
27 3 2
28 3 2
29 3 2
30 3 2
31 3 2
32 3 2
33 3 2
34 3 2
35 3 2
36 3 2
37 3 2
38 3 2
39 3 2
40 3 2
41 3 2
42 3 2
43 3 2
44 3 2
45 3 2
46 3 2
47 3 2
48 3 2
49 3 2
0 4 2
1 4 2
2 4 2
3 4 2
4 4 2
5 4 2
6 4 2
7 4 2
8 4 2
9 4 2
10 4 2
11 4 2
12 4 2
13 4 2
14 4 2
15 4 2
16 4 2
17 4 2
18 4 2
19 4 2
20 4 2
21 4 2
22 4 2
23 4 2
24 4 2
25 4 2
26 4 2
27 4 2
28 4 2
29 4 2
30 4 2
31 4 2
32 4 2
33 4 2
34 4 2
35 4 2
36 4 2
37 4 2
38 4 2
39 4 2
40 4 2
41 4 2
42 4 2
43 4 2
44 4 2
45 4 2
46 4 2
47 4 2
48 4 2
49 4 2
0 5 2
1 5 2
2 5 2
3 5 2
4 5 2
5 5 2
6 5 2
7 5 2
8 5 2
9 5 2
10 5 2
11 5 2
12 5 2
13 5 2
14 5 2
15 5 2
16 5 2
17 5 2
18 5 2
19 5 2
20 5 2
21 5 2
22 5 2
23 5 2
24 5 2
25 5 2
26 5 2
27 5 2
28 5 2
29 5 2
30 5 2
31 5 2
32 5 2
33 5 2
34 5 2
35 5 2
36 5 2
37 5 2
38 5 2
39 5 2
40 5 2
41 5 2
42 5 2
43 5 2
44 5 2
45 5 2
46 5 2
47 5 2
48 5 2
49 5 2
0 6 2
1 6 2
2 6 2
3 6 2
4 6 2
5 6 2
6 6 2
7 6 2
8 6 2
9 6 2
10 6 2
11 6 2
12 6 2
13 6 2
14 6 2
15 6 2
16 6 2
17 6 2
18 6 2
19 6 2
20 6 2
21 6 2
22 6 2
23 6 2
24 6 2
25 6 2
26 6 2
27 6 2
28 6 2
29 6 2
30 6 2
31 6 2
32 6 2
33 6 2
34 6 2
35 6 2
36 6 2
37 6 2
38 6 2
39 6 2
40 6 2
41 6 2
42 6 2
43 6 2
44 6 2
45 6 2
46 6 2
47 6 2
48 6 2
49 6 2
0 7 2
1 7 2
2 7 2
3 7 2
4 7 2
5 7 2
6 7 2
7 7 2
8 7 2
9 7 2
10 7 2
11 7 2
12 7 2
13 7 2
14 7 2
15 7 2
16 7 2
17 7 2
18 7 2
19 7 2
20 7 2
21 7 2
22 7 2
23 7 2
24 7 2
25 7 2
26 7 2
27 7 2
28 7 2
29 7 2
30 7 2
31 7 2
32 7 2
33 7 2
34 7 2
35 7 2
36 7 2
37 7 2
38 7 2
39 7 2
40 7 2
41 7 2
42 7 2
43 7 2
44 7 2
45 7 2
46 7 2
47 7 2
48 7 2
49 7 2
0 8 2
1 8 2
2 8 2
3 8 2
4 8 2
5 8 2
6 8 2
7 8 2
8 8 2
9 8 2
10 8 2
11 8 2
12 8 2
13 8 2
14 8 2
15 8 2
16 8 2
17 8 2
18 8 2
19 8 2
20 8 2
21 8 2
22 8 2
23 8 2
24 8 2
25 8 2
26 8 2
27 8 2
28 8 2
29 8 2
30 8 2
31 8 2
32 8 2
33 8 2
34 8 2
35 8 2
36 8 2
37 8 2
38 8 2
39 8 2
40 8 2
41 8 2
42 8 2
43 8 2
44 8 2
45 8 2
46 8 2
47 8 2
48 8 2
49 8 2
0 9 2
1 9 2
2 9 2
3 9 2
4 9 2
[...]
POINT_DATA 15000
SCALARS sol534 float
LOOKUP_TABLE default
58.454
58.451
58.4479
58.4449
58.4418
58.4388
58.4357
58.4327
58.4296
58.4266
58.4235
58.4205
58.4174
58.4144
58.4114
58.4083
58.4053
58.4022
58.3992
58.3961
58.3931
58.3901
58.387
58.384
58.3809
58.3779
58.3749
58.3718
58.3688
58.3658
58.3627
58.3597
58.3566
58.3536
58.3506
58.3475
58.3445
58.3415
58.3384
58.3354
58.3324
58.3293
58.3263
58.3233
58.3202
58.3172
58.3142
58.3112
58.3081
58.3051
58.3021
58.299
58.296
58.293
58.29
58.2869
58.2839
58.2809
58.2778
58.2748
58.2718
58.2688
58.2657
58.2627
58.2597
58.2567
58.2537
58.2506
58.2476
58.2446
58.2416
58.2385
58.2355
58.2325
58.2295
58.2265
58.2235
58.2204
58.2174
58.2144
58.2114
58.2084
58.2053
58.2023
58.1993
58.1963
58.1933
58.1903
58.1873
58.1842
58.1812
58.1782
58.1752
58.1722
58.1692
58.1662
58.1632
58.1602
58.1571
58.1541
58.1511
58.1481
58.1451
58.1421
58.1391
58.1361
58.1331
58.1301
58.1271
58.1241
58.1211
58.1181
58.1151
58.112
58.109
58.106
58.103
58.1
58.097
58.094
58.091
58.088
58.085
58.082
58.079
58.076
58.073
58.07
58.067
58.064
58.061
58.0581
58.0551
58.0521
58.0491
58.0461
58.0431
58.0401
58.0371
58.0341
58.0311
58.0281
58.0251
58.0221
58.0191
58.0161
58.0132
58.0102
58.0072
58.0042
58.0012
57.9982
57.9952
57.9922
57.9892
57.9863
57.9833
57.9803
57.9773
57.9743
57.9713
57.9683
57.9654
57.9624
57.9594
57.9564
57.9534
57.9505
57.9475
57.9445
57.9415
57.9385
57.9355
57.9326
57.9296
57.9266
57.9236
57.9207
57.9177
57.9147
57.9117
57.9087
57.9058
57.9028
57.8998
57.8968
57.8939
57.8909
57.8879
57.8849
57.882
57.879
57.876
57.8731
57.8701
57.8671
57.8641
57.8612
57.8582
57.8552
57.8523
57.8493
57.8463
57.8434
57.8404
57.8374
57.8345
57.8315
57.8285
57.8256
57.8226
57.8196
57.8167
57.8137
57.8107
57.8078
57.8048
57.8019
57.7989
57.7959
57.793
57.79
57.7871
57.7841
57.7811
57.7782
57.7752
57.7723
57.7693
57.7663
57.7634
57.7604
57.7575
57.7545
57.7516
57.7486
57.7457
57.7427
57.7398
57.7368
57.7338
57.7309
57.7279
57.725
57.722
57.7191
57.7161
57.7132
57.7102
57.7073
57.7043
57.7014
57.6984
57.6955
57.6925
57.6896
57.6867
57.6837
57.6808
57.6778
57.6749
57.6719
57.669
57.666
57.6631
57.6602
57.6572
57.6543
57.6513
57.6484
57.6454
57.6425
57.6396
57.6366
57.6337
57.6307
57.6278
57.6249
57.6219
57.619
57.6161
57.6131
57.6102
57.6072
57.6043
57.6014
57.5984
57.5955
57.5926
57.5896
57.5867
57.5838
57.5808
57.5779
57.575
57.572
57.5691
57.5662
57.5633
57.5603
57.5574
57.5545
57.5515
57.5486
57.5457
57.5428
57.5398
57.5369
57.534
57.5311
57.5281
57.5252
57.5223
57.5194
57.5164
57.5135
57.5106
57.5077
57.5047
57.5018
57.4989
57.496
57.4931
57.4901
57.4872
57.4843
57.4814
57.4785
57.4755
57.4726
57.4697
57.4668
57.4639
57.461
57.458
57.4551
57.4522
57.4493
57.4464
57.4435
57.4406
57.4376
57.4347
57.4318
57.4289
57.426
57.4231
57.4202
57.4173
57.4144
57.4115
57.4085
57.4056
57.4027
57.3998
57.3969
57.394
57.3911
57.3882
57.3853
57.3824
57.3795
57.3766
57.3737
57.3708
57.3679
57.365
57.3621
57.3592
57.3562
57.3533
57.3504
57.3475
57.3446
57.3417
57.3388
57.3359
57.333
57.3302
57.3273
57.3244
57.3215
57.3186
57.3157
57.3128
57.3099
57.307
57.3041
57.3012
57.2983
57.2954
57.2925
57.2896
57.2867
57.2838
57.2809
57.278
57.2752
57.2723
57.2694
57.2665
57.2636
57.2607
57.2578
57.2549
57.252
57.2492
57.2463
57.2434
57.2405
57.2376
57.2347
57.2318
57.229
57.2261
57.2232
57.2203
57.2174
57.2145
57.2117
57.2088
57.2059
57.203
57.2001
57.1973
57.1944
57.1915
57.1886
57.1857
57.1829
57.18
57.1771
57.1742
57.1714
57.1685
57.1656
57.1627
57.1598
57.157
57.1541
57.1512
57.1484
57.1455
57.1426
57.1397
57.1369
57.134
57.1311
57.1282
57.1254
57.1225
57.1196
57.1168
57.1139
57.111
57.1082
57.1053
57.1024
57.0996
57.0967
57.0938
57.091
57.0881
57.0852
57.0824
57.0795
57.0766
57.0738
57.0709
57.0681
57.0652
57.0623
57.0595
57.0566
57.0537
57.0509
57.048
57.0452
57.0423
57.0394
57.0366
57.0337
57.0309
57.028
57.0252
57.0223
57.0194
57.0166
57.0137
57.0109
57.008
57.0052
57.0023
56.9995
56.9966
56.9938
56.9909
56.9881
56.9852
56.9824
56.9795
56.9767
56.9738
56.971
56.9681
56.9653
56.9624
56.9596
56.9567
56.9539
56.951
56.9482
56.9453
56.9425
56.9396
56.9368
56.9339
56.9311
56.9283
56.9254
56.9226
56.9197
56.9169
56.914
56.9112
56.9084
56.9055
56.9027
56.8998
56.897
56.8942
56.8913
56.8885
56.8857
56.8828
56.88
56.8771
56.8743
56.8715
56.8686
56.8658
56.863
56.8601
56.8573
56.8545
56.8516
56.8488
56.846
56.8431
56.8403
56.8375
56.8346
56.8318
56.829
56.8262
56.8233
56.8205
56.8177
56.8148
56.812
56.8092
56.8064
56.8035
56.8007
56.7979
56.7951
56.7922
56.7894
56.7866
56.7838
56.7809
56.7781
56.7753
56.7725
56.7696
56.7668
56.764
56.7612
56.7584
56.7555
56.7527
56.7499
56.7471
56.7443
56.7414
56.7386
56.7358
56.733
56.7302
56.7274
56.7245
56.7217
56.7189
56.7161
56.7133
56.7105
56.7077
56.7049
56.702
56.6992
56.6964
56.6936
56.6908
56.688
56.6852
56.6824
56.6796
56.6767
56.6739
56.6711
56.6683
56.6655
56.6627
56.6599
56.6571
56.6543
56.6515
56.6487
56.6459
56.6431
56.6403
56.6375
56.6347
56.6319
56.629
56.6262
56.6234
56.6206
56.6178
56.615
56.6122
56.6094
56.6066
56.6038
56.601
56.5982
56.5955
56.5927
56.5899
56.5871
56.5843
56.5815
56.5787
56.5759
56.5731
56.5703
56.5675
56.5647
56.5619
56.5591
56.5563
56.5535
56.5507
56.5479
56.5452
56.5424
56.5396
56.5368
56.534
56.5312
56.5284
56.5256
56.5228
56.5201
56.5173
56.5145
56.5117
56.5089
56.5061
56.5033
56.5006
56.4978
56.495
56.4922
56.4894
56.4866
56.4839
56.4811
56.4783
56.4755
56.4727
56.4699
56.4672
56.4644
56.4616
56.4588
56.4561
56.4533
56.4505
56.4477
56.4449
56.4422
56.4394
56.4366
56.4338
56.4311
56.4283
56.4255
56.4227
56.42
56.4172
56.4144
56.4116
56.4089
56.4061
56.4033
56.4006
56.3978
56.395
56.3923
56.3895
56.3867
56.3839
56.3812
56.3784
56.3756
56.3729
56.3701
56.3673
56.3646
56.3618
56.359
56.3563
56.3535
56.3508
56.348
56.3452
56.3425
56.3397
56.3369
56.3342
56.3314
56.3287
56.3259
56.3231
56.3204
56.3176
56.3149
56.3121
56.3093
56.3066
56.3038
56.3011
56.2983
56.2956
56.2928
56.29
56.2873
56.2845
56.2818
56.279
56.2763
56.2735
56.2708
56.268
56.2653
56.2625
56.2598
56.257
56.2543
56.2515
56.2488
56.246
56.2433
56.2405
56.2378
56.235
56.2323
56.2295
56.2268
56.224
56.2213
56.2185
56.2158
56.213
56.2103
56.2076
56.2048
56.2021
56.1993
56.1966
56.1938
56.1911
56.1884
56.1856
56.1829
56.1801
56.1774
56.1747
56.1719
56.1692
56.1664
56.1637
56.161
56.1582
56.1555
56.1527
56.15
56.1473
56.1445
56.1418
56.1391
56.1363
56.1336
56.1309
56.1281
56.1254
56.1227
56.1199
56.1172
56.1145
56.1117
56.109
56.1063
56.1036
56.1008
56.0981
56.0954
56.0926
56.0899
56.0872
56.0845
56.0817
56.079
56.0763
56.0736
56.0708
56.0681
56.0654
56.0627
56.0599
56.0572
56.0545
56.0518
56.049
56.0463
56.0436
56.0409
56.0382
56.0354
56.0327
56.03
56.0273
56.0246
56.0218
56.0191
56.0164
56.0137
56.011
56.0083
56.0055
56.0028
56.0001
55.9974
55.9947
55.992
55.9893
55.9865
55.9838
55.9811
55.9784
55.9757
55.973
55.9703
55.9676
55.9649
55.9621
55.9594
55.9567
55.954
55.9513
55.9486
55.9459
55.9432
55.9405
55.9378
55.9351
55.9324
55.9297
55.9269
55.9242
55.9215
55.9188
55.9161
55.9134
55.9107
55.908
55.9053
55.9026
55.8999
55.8972
55.8945
55.8918
55.8891
55.8864
55.8837
55.881
55.8783
55.8756
55.8729
55.8702
55.8675
55.8648
55.8621
55.8594
55.8568
55.8541
55.8514
55.8487
55.846
55.8433
55.8406
55.8379
55.8352
55.8325
55.8298
55.8271
55.8244
55.8217
55.8191
55.8164
55.8137
55.811
55.8083
55.8056
55.8029
55.8002
55.7976
55.7949
55.7922
55.7895
55.7868
55.7841
55.7814
55.7788
55.7761
55.7734
55.7707
55.768
55.7653
55.7627
55.76
55.7573
55.7546
55.7519
55.7493
55.7466
55.7439
55.7412
55.7385
55.7359
55.7332
55.7305
55.7278
55.7252
55.7225
55.7198
55.7171
55.7144
55.7118
55.7091
55.7064
55.7038
55.7011
55.6984
55.6957
55.6931
55.6904
55.6877
55.685
55.6824
55.6797
55.677
55.6744
55.6717
55.669
55.6664
55.6637
55.661
55.6584
55.6557
55.653
55.6504
55.6477
55.645
55.6424
55.6397
55.637
55.6344
55.6317
55.629
55.6264
55.6237
55.6211
55.6184
55.6157
55.6131
55.6104
55.6078
55.6051
55.6024
55.5998
55.5971
55.5945
55.5918
55.5891
55.5865
55.5838
55.5812
55.5785
55.5759
55.5732
55.5705
55.5679
55.5652
55.5626
55.5599
55.5573
55.5546
55.552
55.5493
55.5467
55.544
55.5414
55.5387
55.5361
55.5334
55.5308
55.5281
55.5255
55.5228
55.5202
55.5175
55.5149
55.5122
55.5096
55.5069
55.5043
55.5017
55.499
55.4964
55.4937
55.4911
55.4884
55.4858
55.4831
55.4805
55.4779
55.4752
55.4726
55.4699
55.4673
55.4647
55.462
55.4594
55.4567
55.4541
55.4515
55.4488
55.4462
55.4436
55.4409
55.4383
55.4356
55.433
55.4304
55.4277
55.4251
55.4225
55.4198
55.4172
55.4146
55.4119
55.4093
55.4067
55.404
55.4014
55.3988
55.3962
55.3935
55.3909
55.3883
55.3856
55.383
55.3804
55.3778
55.3751
55.3725
55.3699
55.3672
55.3646
55.362
55.3594
55.3567
55.3541
55.3515
55.3489
55.3463
55.3436
55.341
55.3384
55.3358
55.3331
55.3305
55.3279
55.3253
55.3227
55.32
55.3174
55.3148
55.3122
55.3096
55.307
55.3043
55.3017
55.2991
55.2965
55.2939
55.2913
55.2886
55.286
55.2834
55.2808
55.2782
55.2756
55.273
55.2703
55.2677
55.2651
55.2625
55.2599
55.2573
55.2547
55.2521
55.2495
55.2469
55.2442
55.2416
55.239
55.2364
55.2338
55.2312
55.2286
55.226
55.2234
55.2208
55.2182
55.2156
55.213
55.2104
55.2078
55.2052
55.2026
55.2
55.1974
55.1947
55.1921
55.1895
55.1869
55.1843
55.1817
55.1791
55.1765
55.174
55.1714
55.1688
55.1662
55.1636
55.161
55.1584
55.1558
55.1532
55.1506
55.148
55.1454
55.1428
55.1402
55.1376
55.135
55.1324
55.1298
55.1272
55.1246
55.1221
55.1195
55.1169
55.1143
55.1117
55.1091
55.1065
55.1039
55.1013
55.0988
55.0962
55.0936
55.091
55.0884
55.0858
55.0832
55.0806
55.0781
55.0755
55.0729
55.0703
55.0677
55.0651
55.0626
55.06
55.0574
55.0548
55.0522
55.0497
55.0471
55.0445
55.0419
55.0393
55.0368
55.0342
55.0316
55.029
55.0264
55.0239
55.0213
55.0187
55.0161
55.0136
55.011
55.0084
55.0058
55.0033
55.0007
54.9981
54.9955
54.993
54.9904
54.9878
54.9853
54.9827
54.9801
54.9775
54.975
54.9724
54.9698
54.9673
54.9647
54.9621
54.9596
54.957
54.9544
54.9519
54.9493
54.9467
54.9442
54.9416
54.939
54.9365
54.9339
54.9313
54.9288
54.9262
54.9236
54.9211
54.9185
54.916
54.9134
54.9108
54.9083
54.9057
54.9032
54.9006
54.898
54.8955
54.8929
54.8904
54.8878
54.8852
54.8827
54.8801
54.8776
54.875
54.8725
54.8699
54.8674
54.8648
54.8623
54.8597
54.8571
54.8546
54.852
54.8495
54.8469
54.8444
54.8418
54.8393
54.8367
54.8342
54.8316
54.8291
54.8265
54.824
54.8214
54.8189
54.8163
54.8138
54.8112
54.8087
54.8062
54.8036
54.8011
54.7985
54.796
54.7934
54.7909
54.7883
54.7858
54.7833
54.7807
54.7782
54.7756
54.7731
54.7706
54.768
54.7655
54.7629
54.7604
54.7579
54.7553
54.7528
54.7502
54.7477
54.7452
54.7426
54.7401
54.7376
54.735
54.7325
54.73
54.7274
54.7249
54.7223
54.7198
54.7173
54.7147
54.7122
54.7097
54.7072
54.7046
54.7021
54.6996
54.697
54.6945
54.692
54.6894
54.6869
54.6844
54.6819
54.6793
54.6768
54.6743
54.6718
54.6692
54.6667
54.6642
54.6616
54.6591
54.6566
54.6541
54.6516
54.649
54.6465
54.644
54.6415
54.6389
54.6364
54.6339
54.6314
54.6289
54.6263
54.6238
54.6213
54.6188
54.6163
54.6137
54.6112
54.6087
54.6062
54.6037
54.6012
54.5986
54.5961
54.5936
54.5911
54.5886
54.5861
54.5836
54.581
54.5785
54.576
54.5735
54.571
54.5685
54.566
54.5635
54.5609
54.5584
54.5559
54.5534
54.5509
54.5484
54.5459
54.5434
54.5409
54.5384
54.5359
54.5334
54.5309
54.5283
54.5258
54.5233
54.5208
54.5183
54.5158
54.5133
54.5108
54.5083
54.5058
54.5033
54.5008
54.4983
54.4958
54.4933
54.4908
54.4883
54.4858
54.4833
54.4808
54.4783
54.4758
54.4733
54.4708
54.4683
54.4658
54.4633
54.4608
54.4583
54.4558
54.4533
54.4509
54.4484
54.4459
54.4434
54.4409
54.4384
54.4359
54.4334
54.4309
54.4284
54.4259
54.4234
54.4209
54.4185
54.416
54.4135
54.411
54.4085
54.406
54.4035
54.401
54.3986
54.3961
54.3936
54.3911
54.3886
54.3861
54.3836
54.3812
54.3787
54.3762
54.3737
54.3712
54.3687
54.3663
54.3638
54.3613
54.3588
54.3563
54.3539
54.3514
54.3489
54.3464
54.3439
54.3415
54.339
54.3365
54.334
54.3315
54.3291
54.3266
54.3241
54.3216
54.3192
54.3167
54.3142
54.3117
54.3093
54.3068
54.3043
54.3018
54.2994
54.2969
54.2944
54.292
54.2895
54.287
54.2846
54.2821
54.2796
54.2771
54.2747
54.2722
54.2697
54.2673
54.2648
54.2623
54.2599
54.2574
54.2549
54.2525
54.25
54.2475
54.2451
54.2426
54.2401
54.2377
54.2352
54.2328
54.2303
54.2278
54.2254
54.2229
54.2205
54.218
54.2155
54.2131
54.2106
54.2082
54.2057
54.2032
54.2008
54.1983
54.1959
54.1934
54.191
54.1885
54.186
54.1836
54.1811
54.1787
54.1762
54.1738
54.1713
54.1689
54.1664
54.164
54.1615
54.1591
54.1566
54.1541
54.1517
54.1492
54.1468
54.1443
54.1419
54.1395
54.137
54.1346
54.1321
54.1297
54.1272
54.1248
54.1223
54.1199
54.1174
54.115
54.1125
54.1101
54.1076
54.1052
54.1028
54.1003
54.0979
54.0954
54.093
54.0905
54.0881
54.0857
54.0832
54.0808
54.0783
54.0759
54.0735
54.071
54.0686
54.0662
54.0637
54.0613
54.0588
54.0564
54.054
54.0515
54.0491
54.0467
54.0442
54.0418
54.0394
54.0369
54.0345
54.0321
54.0296
54.0272
54.0248
54.0223
54.0199
54.0175
54.015
54.0126
54.0102
54.0077
54.0053
54.0029
54.0005
53.998
53.9956
53.9932
53.9907
53.9883
53.9859
53.9835
53.981
53.9786
53.9762
53.9738
53.9713
53.9689
53.9665
53.9641
53.9617
53.9592
53.9568
53.9544
53.952
53.9495
53.9471
53.9447
53.9423
53.9399
53.9374
53.935
53.9326
53.9302
53.9278
53.9254
53.9229
53.9205
53.9181
53.9157
53.9133
53.9109
53.9084
53.906
53.9036
53.9012
53.8988
53.8964
53.894
53.8915
53.8891
53.8867
53.8843
53.8819
53.8795
53.8771
53.8747
53.8723
53.8699
53.8674
53.865
53.8626
53.8602
53.8578
53.8554
53.853
53.8506
53.8482
53.8458
53.8434
53.841
53.8386
53.8362
53.8338
53.8314
53.829
53.8266
53.8241
53.8217
53.8193
53.8169
53.8145
53.8121
53.8097
53.8073
53.8049
53.8025
53.8001
53.7977
53.7953
53.793
53.7906
53.7882
53.7858
53.7834
53.781
53.7786
53.7762
53.7738
53.7714
53.769
53.7666
53.7642
53.7618
53.7594
53.757
53.7546
53.7522
53.7499
53.7475
53.7451
53.7427
53.7403
53.7379
53.7355
53.7331
53.7307
53.7283
53.726
53.7236
53.7212
53.7188
53.7164
53.714
53.7116
53.7093
53.7069
53.7045
53.7021
53.6997
53.6973
53.695
53.6926
53.6902
53.6878
53.6854
53.683
53.6807
53.6783
53.6759
53.6735
53.6711
53.6688
53.6664
53.664
53.6616
53.6592
53.6569
53.6545
53.6521
53.6497
53.6474
53.645
53.6426
53.6402
53.6379
53.6355
53.6331
53.6307
53.6284
53.626
53.6236
53.6213
53.6189
53.6165
53.6141
53.6118
53.6094
53.607
53.6047
53.6023
53.5999
53.5976
53.5952
53.5928
53.5904
53.5881
53.5857
53.5833
53.581
53.5786
53.5762
53.5739
53.5715
53.5692
53.5668
53.5644
53.5621
53.5597
53.5573
53.555
53.5526
53.5503
53.5479
53.5455
53.5432
53.5408
53.5385
53.5361
53.5337
53.5314
53.529
53.5267
53.5243
53.5219
53.5196
53.5172
53.5149
53.5125
53.5102
53.5078
53.5055
53.5031
53.5007
53.4984
53.496
53.4937
53.4913
53.489
53.4866
53.4843
53.4819
53.4796
53.4772
53.4749
53.4725
53.4702
53.4678
53.4655
53.4631
53.4608
53.4584
53.4561
53.4537
53.4514
53.449
53.4467
53.4444
53.442
53.4397
53.4373
53.435
53.4326
53.4303
53.4279
53.4256
53.4233
53.4209
53.4186
53.4162
53.4139
53.4115
53.4092
53.4069
53.4045
53.4022
53.3999
53.3975
53.3952
53.3928
53.3905
53.3882
53.3858
53.3835
53.3812
53.3788
53.3765
53.3741
53.3718
53.3695
53.3671
53.3648
53.3625
53.3601
53.3578
53.3555
53.3531
53.3508
53.3485
53.3462
53.3438
53.3415
53.3392
53.3368
53.3345
53.3322
53.3298
53.3275
53.3252
53.3229
53.3205
53.3182
53.3159
53.3136
53.3112
53.3089
53.3066
53.3043
53.3019
53.2996
53.2973
53.295
53.2926
53.2903
53.288
53.2857
53.2834
53.281
53.2787
53.2764
53.2741
53.2718
53.2694
53.2671
53.2648
53.2625
53.2602
53.2578
53.2555
53.2532
53.2509
53.2486
53.2463
53.2439
53.2416
53.2393
53.237
53.2347
53.2324
53.2301
53.2277
53.2254
53.2231
53.2208
53.2185
53.2162
53.2139
53.2116
53.2093
53.2069
53.2046
53.2023
53.2
53.1977
53.1954
53.1931
53.1908
53.1885
53.1862
53.1839
53.1816
53.1793
53.1769
53.1746
53.1723
53.17
53.1677
53.1654
53.1631
53.1608
53.1585
53.1562
53.1539
53.1516
53.1493
53.147
53.1447
53.1424
53.1401
53.1378
53.1355
53.1332
53.1309
53.1286
53.1263
53.124
53.1217
53.1194
53.1171
53.1148
53.1125
53.1102
53.108
53.1057
53.1034
53.1011
53.0988
53.0965
53.0942
53.0919
53.0896
53.0873
53.085
53.0827
53.0804
53.0782
53.0759
53.0736
53.0713
53.069
53.0667
53.0644
53.0621
53.0598
53.0576
53.0553
53.053
53.0507
53.0484
53.0461
53.0438
53.0416
53.0393
53.037
53.0347
53.0324
53.0301
53.0279
53.0256
53.0233
53.021
53.0187
53.0164
53.0142
53.0119
53.0096
53.0073
53.005
53.0028
53.0005
52.9982
52.9959
52.9937
52.9914
52.9891
52.9868
52.9846
52.9823
52.98
52.9777
52.9755
52.9732
52.9709
52.9686
52.9664
52.9641
52.9618
52.9595
52.9573
52.955
52.9527
52.9505
52.9482
52.9459
52.9436
52.9414
52.9391
52.9368
52.9346
52.9323
52.93
52.9278
52.9255
52.9232
52.921
52.9187
52.9164
52.9142
52.9119
52.9096
52.9074
52.9051
52.9028
52.9006
52.8983
52.8961
52.8938
52.8915
52.8893
52.887
52.8848
52.8825
52.8802
52.878
52.8757
52.8735
52.8712
52.8689
52.8667
52.8644
52.8622
52.8599
52.8577
52.8554
52.8531
52.8509
52.8486
52.8464
52.8441
52.8419
52.8396
52.8374
52.8351
52.8329
52.8306
52.8283
52.8261
52.8238
52.8216
52.8193
52.8171
52.8148
52.8126
52.8103
52.8081
52.8058
52.8036
52.8013
52.7991
52.7969
52.7946
52.7924
52.7901
52.7879
52.7856
52.7834
52.7811
52.7789
52.7766
52.7744
52.7722
52.7699
52.7677
52.7654
52.7632
52.7609
52.7587
52.7565
52.7542
52.752
52.7497
52.7475
52.7453
52.743
52.7408
52.7385
52.7363
52.7341
52.7318
52.7296
52.7274
52.7251
52.7229
52.7207
52.7184
52.7162
52.714
52.7117
52.7095
52.7072
52.705
52.7028
52.7006
52.6983
52.6961
52.6939
52.6916
52.6894
52.6872
52.6849
52.6827
52.6805
52.6782
52.676
52.6738
52.6716
52.6693
52.6671
52.6649
52.6627
52.6604
52.6582
52.656
52.6538
52.6515
52.6493
52.6471
52.6449
52.6426
52.6404
52.6382
52.636
52.6337
52.6315
52.6293
52.6271
52.6249
52.6226
52.6204
52.6182
52.616
52.6138
52.6115
52.6093
52.6071
52.6049
52.6027
52.6005
52.5982
52.596
52.5938
52.5916
52.5894
52.5872
52.5849
52.5827
52.5805
52.5783
52.5761
52.5739
52.5717
52.5694
52.5672
52.565
52.5628
52.5606
52.5584
52.5562
52.554
52.5518
52.5496
52.5473
52.5451
52.5429
52.5407
52.5385
52.5363
52.5341
52.5319
52.5297
52.5275
52.5253
52.5231
52.5209
52.5187
52.5165
52.5143
52.5121
52.5099
52.5077
52.5054
52.5032
52.501
52.4988
52.4966
52.4944
52.4922
52.49
52.4878
52.4856
52.4834
52.4812
52.479
52.4769
52.4747
52.4725
52.4703
52.4681
52.4659
52.4637
52.4615
52.4593
52.4571
52.4549
52.4527
52.4505
52.4483
52.4461
52.4439
52.4417
52.4395
52.4374
52.4352
52.433
52.4308
52.4286
52.4264
52.4242
52.422
52.4198
52.4176
52.4155
52.4133
52.4111
52.4089
52.4067
52.4045
52.4023
52.4001
52.398
52.3958
52.3936
52.3914
52.3892
52.387
52.3849
52.3827
52.3805
52.3783
52.3761
52.3739
52.3718
52.3696
52.3674
52.3652
52.363
52.3609
52.3587
52.3565
52.3543
52.3521
52.35
52.3478
52.3456
52.3434
52.3413
52.3391
52.3369
52.3347
52.3326
52.3304
52.3282
52.326
52.3239
52.3217
52.3195
52.3173
52.3152
52.313
52.3108
52.3087
52.3065
52.3043
52.3021
52.3
52.2978
52.2956
52.2935
52.2913
52.2891
52.287
52.2848
52.2826
52.2805
52.2783
52.2761
52.274
52.2718
52.2696
52.2675
52.2653
52.2631
52.261
52.2588
52.2566
52.2545
52.2523
52.2502
52.248
52.2458
52.2437
52.2415
52.2393
52.2372
52.235
52.2329
52.2307
52.2286
52.2264
52.2242
52.2221
52.2199
52.2178
52.2156
52.2134
52.2113
52.2091
52.207
52.2048
52.2027
52.2005
52.1984
52.1962
52.1941
52.1919
52.1898
52.1876
52.1854
52.1833
52.1811
52.179
52.1768
52.1747
52.1725
52.1704
52.1682
52.1661
52.1639
52.1618
52.1596
52.1575
52.1554
52.1532
52.1511
52.1489
52.1468
52.1446
52.1425
52.1403
52.1382
52.136
52.1339
52.1318
52.1296
52.1275
52.1253
52.1232
52.121
52.1189
52.1168
52.1146
52.1125
52.1103
52.1082
52.1061
52.1039
52.1018
52.0996
52.0975
52.0954
52.0932
52.0911
52.089
52.0868
52.0847
52.0825
52.0804
52.0783
52.0761
52.074
52.0719
52.0697
52.0676
52.0655
52.0633
52.0612
52.0591
52.0569
52.0548
52.0527
52.0506
52.0484
52.0463
52.0442
52.042
52.0399
52.0378
52.0356
52.0335
52.0314
52.0293
52.0271
52.025
52.0229
52.0208
52.0186
52.0165
52.0144
52.0123
52.0101
52.008
52.0059
52.0038
52.0016
51.9995
51.9974
51.9953
51.9931
51.991
51.9889
51.9868
51.9847
51.9825
51.9804
51.9783
51.9762
51.9741
51.972
51.9698
51.9677
51.9656
51.9635
51.9614