# vtk DataFile Version 2.0
vtk output
ASCII
DATASET STRUCTURED_GRID
DIMENSIONS 50 10 30
POINTS 15000 float
0 0 0
1 0 0
2 0 0
3 0 0
4 0 0
5 0 0
6 0 0
7 0 0
8 0 0
9 0 0
10 0 0
11 0 0
12 0 0
13 0 0
14 0 0
15 0 0
16 0 0
17 0 0
18 0 0
19 0 0
20 0 0
21 0 0
22 0 0
23 0 0
24 0 0
25 0 0
26 0 0
27 0 0
28 0 0
29 0 0
30 0 0
31 0 0
32 0 0
33 0 0
34 0 0
35 0 0
36 0 0
37 0 0
38 0 0
39 0 0
40 0 0
41 0 0
42 0 0
43 0 0
44 0 0
45 0 0
46 0 0
47 0 0
48 0 0
49 0 0
0 1 0
1 1 0
2 1 0
3 1 0
4 1 0
5 1 0
6 1 0
7 1 0
8 1 0
9 1 0
10 1 0
11 1 0
12 1 0
13 1 0
14 1 0
15 1 0
16 1 0
17 1 0
18 1 0
19 1 0
20 1 0
21 1 0
22 1 0
23 1 0
24 1 0
25 1 0
26 1 0
27 1 0
28 1 0
29 1 0
30 1 0
31 1 0
32 1 0
33 1 0
34 1 0
35 1 0
36 1 0
37 1 0
38 1 0
39 1 0
40 1 0
41 1 0
42 1 0
43 1 0
44 1 0
45 1 0
46 1 0
47 1 0
48 1 0
49 1 0
0 2 0
1 2 0
2 2 0
3 2 0
4 2 0
5 2 0
6 2 0
7 2 0
8 2 0
9 2 0
10 2 0
11 2 0
12 2 0
13 2 0
14 2 0
15 2 0
16 2 0
17 2 0
18 2 0
19 2 0
20 2 0
21 2 0
22 2 0
23 2 0
24 2 0
25 2 0
26 2 0
27 2 0
28 2 0
29 2 0
30 2 0
31 2 0
32 2 0
33 2 0
34 2 0
35 2 0
36 2 0
37 2 0
38 2 0
39 2 0
40 2 0
41 2 0
42 2 0
43 2 0
44 2 0
45 2 0
46 2 0
47 2 0
48 2 0
49 2 0
0 3 0
1 3 0
2 3 0
3 3 0
4 3 0
5 3 0
6 3 0
7 3 0
8 3 0
9 3 0
10 3 0
11 3 0
12 3 0
13 3 0
14 3 0
15 3 0
16 3 0
17 3 0
18 3 0
19 3 0
20 3 0
21 3 0
22 3 0
23 3 0
24 3 0
25 3 0
26 3 0
27 3 0
28 3 0
29 3 0
30 3 0
31 3 0
32 3 0
33 3 0
34 3 0
35 3 0
36 3 0
37 3 0
38 3 0
39 3 0
40 3 0
41 3 0
42 3 0
43 3 0
44 3 0
45 3 0
46 3 0
47 3 0
48 3 0
49 3 0
0 4 0
1 4 0
2 4 0
3 4 0
4 4 0
5 4 0
6 4 0
7 4 0
8 4 0
9 4 0
10 4 0
11 4 0
12 4 0
13 4 0
14 4 0
15 4 0
16 4 0
17 4 0
18 4 0
19 4 0
20 4 0
21 4 0
22 4 0
23 4 0
24 4 0
25 4 0
26 4 0
27 4 0
28 4 0
29 4 0
30 4 0
31 4 0
32 4 0
33 4 0
34 4 0
35 4 0
36 4 0
37 4 0
38 4 0
39 4 0
40 4 0
41 4 0
42 4 0
43 4 0
44 4 0
45 4 0
46 4 0
47 4 0
48 4 0
49 4 0
0 5 0
1 5 0
2 5 0
3 5 0
4 5 0
5 5 0
6 5 0
7 5 0
8 5 0
9 5 0
10 5 0
11 5 0
12 5 0
13 5 0
14 5 0
15 5 0
16 5 0
17 5 0
18 5 0
19 5 0
20 5 0
21 5 0
22 5 0
23 5 0
24 5 0
25 5 0
26 5 0
27 5 0
28 5 0
29 5 0
30 5 0
31 5 0
32 5 0
33 5 0
34 5 0
35 5 0
36 5 0
37 5 0
38 5 0
39 5 0
40 5 0
41 5 0
42 5 0
43 5 0
44 5 0
45 5 0
46 5 0
47 5 0
48 5 0
49 5 0
0 6 0
1 6 0
2 6 0
3 6 0
4 6 0
5 6 0
6 6 0
7 6 0
8 6 0
9 6 0
10 6 0
11 6 0
12 6 0
13 6 0
14 6 0
15 6 0
16 6 0
17 6 0
18 6 0
19 6 0
20 6 0
21 6 0
22 6 0
23 6 0
24 6 0
25 6 0
26 6 0
27 6 0
28 6 0
29 6 0
30 6 0
31 6 0
32 6 0
33 6 0
34 6 0
35 6 0
36 6 0
37 6 0
38 6 0
39 6 0
40 6 0
41 6 0
42 6 0
43 6 0
44 6 0
45 6 0
46 6 0
47 6 0
48 6 0
49 6 0
0 7 0
1 7 0
2 7 0
3 7 0
4 7 0
5 7 0
6 7 0
7 7 0
8 7 0
9 7 0
10 7 0
11 7 0
12 7 0
13 7 0
14 7 0
15 7 0
16 7 0
17 7 0
18 7 0
19 7 0
20 7 0
21 7 0
22 7 0
23 7 0
24 7 0
25 7 0
26 7 0
27 7 0
28 7 0
29 7 0
30 7 0
31 7 0
32 7 0
33 7 0
34 7 0
35 7 0
36 7 0
37 7 0
38 7 0
39 7 0
40 7 0
41 7 0
42 7 0
43 7 0
44 7 0
45 7 0
46 7 0
47 7 0
48 7 0
49 7 0
0 8 0
1 8 0
2 8 0
3 8 0
4 8 0
5 8 0
6 8 0
7 8 0
8 8 0
9 8 0
10 8 0
11 8 0
12 8 0
13 8 0
14 8 0
15 8 0
16 8 0
17 8 0
18 8 0
19 8 0
20 8 0
21 8 0
22 8 0
23 8 0
24 8 0
25 8 0
26 8 0
27 8 0
28 8 0
29 8 0
30 8 0
31 8 0
32 8 0
33 8 0
34 8 0
35 8 0
36 8 0
37 8 0
38 8 0
39 8 0
40 8 0
41 8 0
42 8 0
43 8 0
44 8 0
45 8 0
46 8 0
47 8 0
48 8 0
49 8 0
0 9 0
1 9 0
2 9 0
3 9 0
4 9 0
5 9 0
6 9 0
7 9 0
8 9 0
9 9 0
10 9 0
11 9 0
12 9 0
13 9 0
14 9 0
15 9 0
16 9 0
17 9 0
18 9 0
19 9 0
20 9 0
21 9 0
22 9 0
23 9 0
24 9 0
25 9 0
26 9 0
27 9 0
28 9 0
29 9 0
30 9 0
31 9 0
32 9 0
33 9 0
34 9 0
35 9 0
36 9 0
37 9 0
38 9 0
39 9 0
40 9 0
41 9 0
42 9 0
43 9 0
44 9 0
45 9 0
46 9 0
47 9 0
48 9 0
49 9 0
0 0 1
1 0 1
2 0 1
3 0 1
4 0 1
5 0 1
6 0 1
7 0 1
8 0 1
9 0 1
10 0 1
11 0 1
12 0 1
13 0 1
14 0 1
15 0 1
16 0 1
17 0 1
18 0 1
19 0 1
20 0 1
21 0 1
22 0 1
23 0 1
24 0 1
25 0 1
26 0 1
27 0 1
28 0 1
29 0 1
30 0 1
31 0 1
32 0 1
33 0 1
34 0 1
35 0 1
36 0 1
37 0 1
38 0 1
39 0 1
40 0 1
41 0 1
42 0 1
43 0 1
44 0 1
45 0 1
46 0 1
47 0 1
48 0 1
49 0 1
0 1 1
1 1 1
2 1 1
3 1 1
4 1 1
5 1 1
6 1 1
7 1 1
8 1 1
9 1 1
10 1 1
11 1 1
12 1 1
13 1 1
14 1 1
15 1 1
16 1 1
17 1 1
18 1 1
19 1 1
20 1 1
21 1 1
22 1 1
23 1 1
24 1 1
25 1 1
26 1 1
27 1 1
28 1 1
29 1 1
30 1 1
31 1 1
32 1 1
33 1 1
34 1 1
35 1 1
36 1 1
37 1 1
38 1 1
39 1 1
40 1 1
41 1 1
42 1 1
43 1 1
44 1 1
45 1 1
46 1 1
47 1 1
48 1 1
49 1 1
0 2 1
1 2 1
2 2 1
3 2 1
4 2 1
5 2 1
6 2 1
7 2 1
8 2 1
9 2 1
10 2 1
11 2 1
12 2 1
13 2 1
14 2 1
15 2 1
16 2 1
17 2 1
18 2 1
19 2 1
20 2 1
21 2 1
22 2 1
23 2 1
24 2 1
25 2 1
26 2 1
27 2 1
28 2 1
29 2 1
30 2 1
31 2 1
32 2 1
33 2 1
34 2 1
35 2 1
36 2 1
37 2 1
38 2 1
39 2 1
40 2 1
41 2 1
42 2 1
43 2 1
44 2 1
45 2 1
46 2 1
47 2 1
48 2 1
49 2 1
0 3 1
1 3 1
2 3 1
3 3 1
4 3 1
5 3 1
6 3 1
7 3 1
8 3 1
9 3 1
10 3 1
11 3 1
12 3 1
13 3 1
14 3 1
15 3 1
16 3 1
17 3 1
18 3 1
19 3 1
20 3 1
21 3 1
22 3 1
23 3 1
24 3 1
25 3 1
26 3 1
27 3 1
28 3 1
29 3 1
30 3 1
31 3 1
32 3 1
33 3 1
34 3 1
35 3 1
36 3 1
37 3 1
38 3 1
39 3 1
40 3 1
41 3 1
42 3 1
43 3 1
44 3 1
45 3 1
46 3 1
47 3 1
48 3 1
49 3 1
0 4 1
1 4 1
2 4 1
3 4 1
4 4 1
5 4 1
6 4 1
7 4 1
8 4 1
9 4 1
10 4 1
11 4 1
12 4 1
13 4 1
14 4 1
15 4 1
16 4 1
17 4 1
18 4 1
19 4 1
20 4 1
21 4 1
22 4 1
23 4 1
24 4 1
25 4 1
26 4 1
27 4 1
28 4 1
29 4 1
30 4 1
31 4 1
32 4 1
33 4 1
34 4 1
35 4 1
36 4 1
37 4 1
38 4 1
39 4 1
40 4 1
41 4 1
42 4 1
43 4 1
44 4 1
45 4 1
46 4 1
47 4 1
48 4 1
49 4 1
0 5 1
1 5 1
2 5 1
3 5 1
4 5 1
5 5 1
6 5 1
7 5 1
8 5 1
9 5 1
10 5 1
11 5 1
12 5 1
13 5 1
14 5 1
15 5 1
16 5 1
17 5 1
18 5 1
19 5 1
20 5 1
21 5 1
22 5 1
23 5 1
24 5 1
25 5 1
26 5 1
27 5 1
28 5 1
29 5 1
30 5 1
31 5 1
32 5 1
33 5 1
34 5 1
35 5 1
36 5 1
37 5 1
38 5 1
39 5 1
40 5 1
41 5 1
42 5 1
43 5 1
44 5 1
45 5 1
46 5 1
47 5 1
48 5 1
49 5 1
0 6 1
1 6 1
2 6 1
3 6 1
4 6 1
5 6 1
6 6 1
7 6 1
8 6 1
9 6 1
10 6 1
11 6 1
12 6 1
13 6 1
14 6 1
15 6 1
16 6 1
17 6 1
18 6 1
19 6 1
20 6 1
21 6 1
22 6 1
23 6 1
24 6 1
25 6 1
26 6 1
27 6 1
28 6 1
29 6 1
30 6 1
31 6 1
32 6 1
33 6 1
34 6 1
35 6 1
36 6 1
37 6 1
38 6 1
39 6 1
40 6 1
41 6 1
42 6 1
43 6 1
44 6 1
45 6 1
46 6 1
47 6 1
48 6 1
49 6 1
0 7 1
1 7 1
2 7 1
3 7 1
4 7 1
5 7 1
6 7 1
7 7 1
8 7 1
9 7 1
10 7 1
11 7 1
12 7 1
13 7 1
14 7 1
15 7 1
16 7 1
17 7 1
18 7 1
19 7 1
20 7 1
21 7 1
22 7 1
23 7 1
24 7 1
25 7 1
26 7 1
27 7 1
28 7 1
29 7 1
30 7 1
31 7 1
32 7 1
33 7 1
34 7 1
35 7 1
36 7 1
37 7 1
38 7 1
39 7 1
40 7 1
41 7 1
42 7 1
43 7 1
44 7 1
45 7 1
46 7 1
47 7 1
48 7 1
49 7 1
0 8 1
1 8 1
2 8 1
3 8 1
4 8 1
5 8 1
6 8 1
7 8 1
8 8 1
9 8 1
10 8 1
11 8 1
12 8 1
13 8 1
14 8 1
15 8 1
16 8 1
17 8 1
18 8 1
19 8 1
20 8 1
21 8 1
22 8 1
23 8 1
24 8 1
25 8 1
26 8 1
27 8 1
28 8 1
29 8 1
30 8 1
31 8 1
32 8 1
33 8 1
34 8 1
35 8 1
36 8 1
37 8 1
38 8 1
39 8 1
40 8 1
41 8 1
42 8 1
43 8 1
44 8 1
45 8 1
46 8 1
47 8 1
48 8 1
49 8 1
0 9 1
1 9 1
2 9 1
3 9 1
4 9 1
5 9 1
6 9 1
7 9 1
8 9 1
9 9 1
10 9 1
11 9 1
12 9 1
13 9 1
14 9 1
15 9 1
16 9 1
17 9 1
18 9 1
19 9 1
20 9 1
21 9 1
22 9 1
23 9 1
24 9 1
25 9 1
26 9 1
27 9 1
28 9 1
29 9 1
30 9 1
31 9 1
32 9 1
33 9 1
34 9 1
35 9 1
36 9 1
37 9 1
38 9 1
39 9 1
40 9 1
41 9 1
42 9 1
43 9 1
44 9 1
45 9 1
46 9 1
47 9 1
48 9 1
49 9 1
0 0 2
1 0 2
2 0 2
3 0 2
4 0 2
5 0 2
6 0 2
7 0 2
8 0 2
9 0 2
10 0 2
11 0 2
12 0 2
13 0 2
14 0 2
15 0 2
16 0 2
17 0 2
18 0 2
19 0 2
20 0 2
21 0 2
22 0 2
23 0 2
24 0 2
25 0 2
26 0 2
27 0 2
28 0 2
29 0 2
30 0 2
31 0 2
32 0 2
33 0 2
34 0 2
35 0 2
36 0 2
37 0 2
38 0 2
39 0 2
40 0 2
41 0 2
42 0 2
43 0 2
44 0 2
45 0 2
46 0 2
47 0 2
48 0 2
49 0 2
0 1 2
1 1 2
2 1 2
3 1 2
4 1 2
5 1 2
6 1 2
7 1 2
8 1 2
9 1 2
10 1 2
11 1 2
12 1 2
13 1 2
14 1 2
15 1 2
16 1 2
17 1 2
18 1 2
19 1 2
20 1 2
21 1 2
22 1 2
23 1 2
24 1 2
25 1 2
26 1 2
27 1 2
28 1 2
29 1 2
30 1 2
31 1 2
32 1 2
33 1 2
34 1 2
35 1 2
36 1 2
37 1 2
38 1 2
39 1 2
40 1 2
41 1 2
42 1 2
43 1 2
44 1 2
45 1 2
46 1 2
47 1 2
48 1 2
49 1 2
0 2 2
1 2 2
2 2 2
3 2 2
4 2 2
5 2 2
6 2 2
7 2 2
8 2 2
9 2 2
10 2 2
11 2 2
12 2 2
13 2 2
14 2 2
15 2 2
16 2 2
17 2 2
18 2 2
19 2 2
20 2 2
21 2 2
22 2 2
23 2 2
24 2 2
25 2 2
26 2 2
27 2 2
28 2 2
29 2 2
30 2 2
31 2 2
32 2 2
33 2 2
34 2 2
35 2 2
36 2 2
37 2 2
38 2 2
39 2 2
40 2 2
41 2 2
42 2 2
43 2 2
44 2 2
45 2 2
46 2 2
47 2 2
48 2 2
49 2 2
0 3 2
1 3 2
2 3 2
3 3 2
4 3 2
5 3 2
6 3 2
7 3 2
8 3 2
9 3 2
10 3 2
11 3 2
12 3 2
13 3 2
14 3 2
15 3 2
16 3 2
17 3 2
18 3 2
19 3 2
20 3 2
21 3 2
22 3 2
23 3 2
24 3 2
25 3 2
26 3 2
27 3 2
28 3 2
29 3 2
30 3 2
31 3 2
32 3 2
33 3 2
34 3 2
35 3 2
36 3 2
37 3 2
38 3 2
39 3 2
40 3 2
41 3 2
42 3 2
43 3 2
44 3 2
45 3 2
46 3 2
47 3 2
48 3 2
49 3 2
0 4 2
1 4 2
2 4 2
3 4 2
4 4 2
5 4 2
6 4 2
7 4 2
8 4 2
9 4 2
10 4 2
11 4 2
12 4 2
13 4 2
14 4 2
15 4 2
16 4 2
17 4 2
18 4 2
19 4 2
20 4 2
21 4 2
22 4 2
23 4 2
24 4 2
25 4 2
26 4 2
27 4 2
28 4 2
29 4 2
30 4 2
31 4 2
32 4 2
33 4 2
34 4 2
35 4 2
36 4 2
37 4 2
38 4 2
39 4 2
40 4 2
41 4 2
42 4 2
43 4 2
44 4 2
45 4 2
46 4 2
47 4 2
48 4 2
49 4 2
0 5 2
1 5 2
2 5 2
3 5 2
4 5 2
5 5 2
6 5 2
7 5 2
8 5 2
9 5 2
10 5 2
11 5 2
12 5 2
13 5 2
14 5 2
15 5 2
16 5 2
17 5 2
18 5 2
19 5 2
20 5 2
21 5 2
22 5 2
23 5 2
24 5 2
25 5 2
26 5 2
27 5 2
28 5 2
29 5 2
30 5 2
31 5 2
32 5 2
33 5 2
34 5 2
35 5 2
36 5 2
37 5 2
38 5 2
39 5 2
40 5 2
41 5 2
42 5 2
43 5 2
44 5 2
45 5 2
46 5 2
47 5 2
48 5 2
49 5 2
0 6 2
1 6 2
2 6 2
3 6 2
4 6 2
5 6 2
6 6 2
7 6 2
8 6 2
9 6 2
10 6 2
11 6 2
12 6 2
13 6 2
14 6 2
15 6 2
16 6 2
17 6 2
18 6 2
19 6 2
20 6 2
21 6 2
22 6 2
23 6 2
24 6 2
25 6 2
26 6 2
27 6 2
28 6 2
29 6 2
30 6 2
31 6 2
32 6 2
33 6 2
34 6 2
35 6 2
36 6 2
37 6 2
38 6 2
39 6 2
40 6 2
41 6 2
42 6 2
43 6 2
44 6 2
45 6 2
46 6 2
47 6 2
48 6 2
49 6 2
0 7 2
1 7 2
2 7 2
3 7 2
4 7 2
5 7 2
6 7 2
7 7 2
8 7 2
9 7 2
10 7 2
11 7 2
12 7 2
13 7 2
14 7 2
15 7 2
16 7 2
17 7 2
18 7 2
19 7 2
20 7 2
21 7 2
22 7 2
23 7 2
24 7 2
25 7 2
26 7 2
27 7 2
28 7 2
29 7 2
30 7 2
31 7 2
32 7 2
33 7 2
34 7 2
35 7 2
36 7 2
37 7 2
38 7 2
39 7 2
40 7 2
41 7 2
42 7 2
43 7 2
44 7 2
45 7 2
46 7 2
47 7 2
48 7 2
49 7 2
0 8 2
1 8 2
2 8 2
3 8 2
4 8 2
5 8 2
6 8 2
7 8 2
8 8 2
9 8 2
10 8 2
11 8 2
12 8 2
13 8 2
14 8 2
15 8 2
16 8 2
17 8 2
18 8 2
19 8 2
20 8 2
21 8 2
22 8 2
23 8 2
24 8 2
25 8 2
26 8 2
27 8 2
28 8 2
29 8 2
30 8 2
31 8 2
32 8 2
33 8 2
34 8 2
35 8 2
36 8 2
37 8 2
38 8 2
39 8 2
40 8 2
41 8 2
42 8 2
43 8 2
44 8 2
45 8 2
46 8 2
47 8 2
48 8 2
49 8 2
0 9 2
1 9 2
2 9 2
3 9 2
4 9 2
[...]
POINT_DATA 15000
SCALARS sol153 float
LOOKUP_TABLE default
57.2994
57.2964
57.2933
57.2903
57.2872
57.2842
57.2811
57.2781
57.275
57.272
57.2689
57.2659
57.2628
57.2598
57.2568
57.2537
57.2507
57.2476
57.2446
57.2415
57.2385
57.2355
57.2324
57.2294
57.2263
57.2233
57.2203
57.2172
57.2142
57.2112
57.2081
57.2051
57.202
57.199
57.196
57.1929
57.1899
57.1869
57.1838
57.1808
57.1778
57.1747
57.1717
57.1687
57.1656
57.1626
57.1596
57.1565
57.1535
57.1505
57.1475
57.1444
57.1414
57.1384
57.1353
57.1323
57.1293
57.1263
57.1232
57.1202
57.1172
57.1142
57.1111
57.1081
57.1051
57.1021
57.099
57.096
57.093
57.09
57.087
57.0839
57.0809
57.0779
57.0749
57.0719
57.0688
57.0658
57.0628
57.0598
57.0568
57.0538
57.0507
57.0477
57.0447
57.0417
57.0387
57.0357
57.0327
57.0296
57.0266
57.0236
57.0206
57.0176
57.0146
57.0116
57.0086
57.0056
57.0025
56.9995
56.9965
56.9935
56.9905
56.9875
56.9845
56.9815
56.9785
56.9755
56.9725
56.9695
56.9665
56.9635
56.9604
56.9574
56.9544
56.9514
56.9484
56.9454
56.9424
56.9394
56.9364
56.9334
56.9304
56.9274
56.9244
56.9214
56.9184
56.9154
56.9124
56.9094
56.9064
56.9034
56.9005
56.8975
56.8945
56.8915
56.8885
56.8855
56.8825
56.8795
56.8765
56.8735
56.8705
56.8675
56.8645
56.8615
56.8586
56.8556
56.8526
56.8496
56.8466
56.8436
56.8406
56.8376
56.8346
56.8317
56.8287
56.8257
56.8227
56.8197
56.8167
56.8137
56.8108
56.8078
56.8048
56.8018
56.7988
56.7958
56.7929
56.7899
56.7869
56.7839
56.7809
56.778
56.775
56.772
56.769
56.766
56.7631
56.7601
56.7571
56.7541
56.7512
56.7482
56.7452
56.7422
56.7393
56.7363
56.7333
56.7303
56.7274
56.7244
56.7214
56.7185
56.7155
56.7125
56.7095
56.7066
56.7036
56.7006
56.6977
56.6947
56.6917
56.6888
56.6858
56.6828
56.6799
56.6769
56.6739
56.671
56.668
56.665
56.6621
56.6591
56.6561
56.6532
56.6502
56.6473
56.6443
56.6413
56.6384
56.6354
56.6325
56.6295
56.6265
56.6236
56.6206
56.6177
56.6147
56.6117
56.6088
56.6058
56.6029
56.5999
56.597
56.594
56.5911
56.5881
56.5851
56.5822
56.5792
56.5763
56.5733
56.5704
56.5674
56.5645
56.5615
56.5586
56.5556
56.5527
56.5497
56.5468
56.5438
56.5409
56.5379
56.535
56.532
56.5291
56.5262
56.5232
56.5203
56.5173
56.5144
56.5114
56.5085
56.5055
56.5026
56.4997
56.4967
56.4938
56.4908
56.4879
56.485
56.482
56.4791
56.4761
56.4732
56.4703
56.4673
56.4644
56.4615
56.4585
56.4556
56.4526
56.4497
56.4468
56.4438
56.4409
56.438
56.435
56.4321
56.4292
56.4262
56.4233
56.4204
56.4174
56.4145
56.4116
56.4087
56.4057
56.4028
56.3999
56.3969
56.394
56.3911
56.3882
56.3852
56.3823
56.3794
56.3765
56.3735
56.3706
56.3677
56.3648
56.3618
56.3589
56.356
56.3531
56.3501
56.3472
56.3443
56.3414
56.3385
56.3355
56.3326
56.3297
56.3268
56.3239
56.3209
56.318
56.3151
56.3122
56.3093
56.3064
56.3034
56.3005
56.2976
56.2947
56.2918
56.2889
56.286
56.283
56.2801
56.2772
56.2743
56.2714
56.2685
56.2656
56.2627
56.2598
56.2568
56.2539
56.251
56.2481
56.2452
56.2423
56.2394
56.2365
56.2336
56.2307
56.2278
56.2249
56.222
56.2191
56.2162
56.2133
56.2104
56.2074
56.2045
56.2016
56.1987
56.1958
56.1929
56.19
56.1871
56.1842
56.1813
56.1784
56.1755
56.1726
56.1698
56.1669
56.164
56.1611
56.1582
56.1553
56.1524
56.1495
56.1466
56.1437
56.1408
56.1379
56.135
56.1321
56.1292
56.1263
56.1234
56.1206
56.1177
56.1148
56.1119
56.109
56.1061
56.1032
56.1003
56.0974
56.0946
56.0917
56.0888
56.0859
56.083
56.0801
56.0772
56.0744
56.0715
56.0686
56.0657
56.0628
56.0599
56.0571
56.0542
56.0513
56.0484
56.0455
56.0426
56.0398
56.0369
56.034
56.0311
56.0283
56.0254
56.0225
56.0196
56.0167
56.0139
56.011
56.0081
56.0052
56.0024
55.9995
55.9966
55.9937
55.9909
55.988
55.9851
55.9823
55.9794
55.9765
55.9736
55.9708
55.9679
55.965
55.9622
55.9593
55.9564
55.9536
55.9507
55.9478
55.945
55.9421
55.9392
55.9364
55.9335
55.9306
55.9278
55.9249
55.922
55.9192
55.9163
55.9134
55.9106
55.9077
55.9049
55.902
55.8991
55.8963
55.8934
55.8906
55.8877
55.8848
55.882
55.8791
55.8763
55.8734
55.8706
55.8677
55.8648
55.862
55.8591
55.8563
55.8534
55.8506
55.8477
55.8449
55.842
55.8392
55.8363
55.8335
55.8306
55.8277
55.8249
55.822
55.8192
55.8163
55.8135
55.8107
55.8078
55.805
55.8021
55.7993
55.7964
55.7936
55.7907
55.7879
55.785
55.7822
55.7793
55.7765
55.7737
55.7708
55.768
55.7651
55.7623
55.7594
55.7566
55.7538
55.7509
55.7481
55.7452
55.7424
55.7396
55.7367
55.7339
55.731
55.7282
55.7254
55.7225
55.7197
55.7169
55.714
55.7112
55.7084
55.7055
55.7027
55.6999
55.697
55.6942
55.6914
55.6885
55.6857
55.6829
55.68
55.6772
55.6744
55.6715
55.6687
55.6659
55.6631
55.6602
55.6574
55.6546
55.6518
55.6489
55.6461
55.6433
55.6404
55.6376
55.6348
55.632
55.6292
55.6263
55.6235
55.6207
55.6179
55.615
55.6122
55.6094
55.6066
55.6038
55.6009
55.5981
55.5953
55.5925
55.5897
55.5868
55.584
55.5812
55.5784
55.5756
55.5728
55.5699
55.5671
55.5643
55.5615
55.5587
55.5559
55.5531
55.5502
55.5474
55.5446
55.5418
55.539
55.5362
55.5334
55.5306
55.5278
55.5249
55.5221
55.5193
55.5165
55.5137
55.5109
55.5081
55.5053
55.5025
55.4997
55.4969
55.4941
55.4913
55.4885
55.4857
55.4829
55.48
55.4772
55.4744
55.4716
55.4688
55.466
55.4632
55.4604
55.4576
55.4548
55.452
55.4492
55.4464
55.4436
55.4408
55.438
55.4353
55.4325
55.4297
55.4269
55.4241
55.4213
55.4185
55.4157
55.4129
55.4101
55.4073
55.4045
55.4017
55.3989
55.3961
55.3933
55.3906
55.3878
55.385
55.3822
55.3794
55.3766
55.3738
55.371
55.3682
55.3655
55.3627
55.3599
55.3571
55.3543
55.3515
55.3487
55.3459
55.3432
55.3404
55.3376
55.3348
55.332
55.3292
55.3265
55.3237
55.3209
55.3181
55.3153
55.3126
55.3098
55.307
55.3042
55.3014
55.2987
55.2959
55.2931
55.2903
55.2876
55.2848
55.282
55.2792
55.2765
55.2737
55.2709
55.2681
55.2654
55.2626
55.2598
55.257
55.2543
55.2515
55.2487
55.246
55.2432
55.2404
55.2376
55.2349
55.2321
55.2293
55.2266
55.2238
55.221
55.2183
55.2155
55.2127
55.21
55.2072
55.2044
55.2017
55.1989
55.1961
55.1934
55.1906
55.1879
55.1851
55.1823
55.1796
55.1768
55.174
55.1713
55.1685
55.1658
55.163
55.1602
55.1575
55.1547
55.152
55.1492
55.1465
55.1437
55.1409
55.1382
55.1354
55.1327
55.1299
55.1272
55.1244
55.1217
55.1189
55.1162
55.1134
55.1107
55.1079
55.1051
55.1024
55.0996
55.0969
55.0941
55.0914
55.0886
55.0859
55.0832
55.0804
55.0777
55.0749
55.0722
55.0694
55.0667
55.0639
55.0612
55.0584
55.0557
55.0529
55.0502
55.0475
55.0447
55.042
55.0392
55.0365
55.0337
55.031
55.0283
55.0255
55.0228
55.02
55.0173
55.0146
55.0118
55.0091
55.0064
55.0036
55.0009
54.9981
54.9954
54.9927
54.9899
54.9872
54.9845
54.9817
54.979
54.9763
54.9735
54.9708
54.9681
54.9653
54.9626
54.9599
54.9571
54.9544
54.9517
54.949
54.9462
54.9435
54.9408
54.938
54.9353
54.9326
54.9299
54.9271
54.9244
54.9217
54.919
54.9162
54.9135
54.9108
54.9081
54.9053
54.9026
54.8999
54.8972
54.8944
54.8917
54.889
54.8863
54.8836
54.8808
54.8781
54.8754
54.8727
54.87
54.8672
54.8645
54.8618
54.8591
54.8564
54.8537
54.8509
54.8482
54.8455
54.8428
54.8401
54.8374
54.8347
54.8319
54.8292
54.8265
54.8238
54.8211
54.8184
54.8157
54.813
54.8102
54.8075
54.8048
54.8021
54.7994
54.7967
54.794
54.7913
54.7886
54.7859
54.7832
54.7805
54.7778
54.775
54.7723
54.7696
54.7669
54.7642
54.7615
54.7588
54.7561
54.7534
54.7507
54.748
54.7453
54.7426
54.7399
54.7372
54.7345
54.7318
54.7291
54.7264
54.7237
54.721
54.7183
54.7156
54.7129
54.7102
54.7075
54.7048
54.7021
54.6995
54.6968
54.6941
54.6914
54.6887
54.686
54.6833
54.6806
54.6779
54.6752
54.6725
54.6698
54.6671
54.6645
54.6618
54.6591
54.6564
54.6537
54.651
54.6483
54.6456
54.6429
54.6403
54.6376
54.6349
54.6322
54.6295
54.6268
54.6242
54.6215
54.6188
54.6161
54.6134
54.6107
54.6081
54.6054
54.6027
54.6
54.5973
54.5946
54.592
54.5893
54.5866
54.5839
54.5813
54.5786
54.5759
54.5732
54.5705
54.5679
54.5652
54.5625
54.5598
54.5572
54.5545
54.5518
54.5491
54.5465
54.5438
54.5411
54.5385
54.5358
54.5331
54.5304
54.5278
54.5251
54.5224
54.5198
54.5171
54.5144
54.5118
54.5091
54.5064
54.5038
54.5011
54.4984
54.4958
54.4931
54.4904
54.4878
54.4851
54.4824
54.4798
54.4771
54.4744
54.4718
54.4691
54.4665
54.4638
54.4611
54.4585
54.4558
54.4531
54.4505
54.4478
54.4452
54.4425
54.4399
54.4372
54.4345
54.4319
54.4292
54.4266
54.4239
54.4213
54.4186
54.4159
54.4133
54.4106
54.408
54.4053
54.4027
54.4
54.3974
54.3947
54.3921
54.3894
54.3868
54.3841
54.3815
54.3788
54.3762
54.3735
54.3709
54.3682
54.3656
54.3629
54.3603
54.3576
54.355
54.3523
54.3497
54.347
54.3444
54.3418
54.3391
54.3365
54.3338
54.3312
54.3285
54.3259
54.3233
54.3206
54.318
54.3153
54.3127
54.3101
54.3074
54.3048
54.3021
54.2995
54.2969
54.2942
54.2916
54.289
54.2863
54.2837
54.281
54.2784
54.2758
54.2731
54.2705
54.2679
54.2652
54.2626
54.26
54.2573
54.2547
54.2521
54.2494
54.2468
54.2442
54.2416
54.2389
54.2363
54.2337
54.231
54.2284
54.2258
54.2232
54.2205
54.2179
54.2153
54.2126
54.21
54.2074
54.2048
54.2021
54.1995
54.1969
54.1943
54.1916
54.189
54.1864
54.1838
54.1812
54.1785
54.1759
54.1733
54.1707
54.1681
54.1654
54.1628
54.1602
54.1576
54.155
54.1523
54.1497
54.1471
54.1445
54.1419
54.1393
54.1366
54.134
54.1314
54.1288
54.1262
54.1236
54.121
54.1184
54.1157
54.1131
54.1105
54.1079
54.1053
54.1027
54.1001
54.0975
54.0949
54.0922
54.0896
54.087
54.0844
54.0818
54.0792
54.0766
54.074
54.0714
54.0688
54.0662
54.0636
54.061
54.0584
54.0558
54.0532
54.0506
54.048
54.0453
54.0427
54.0401
54.0375
54.0349
54.0323
54.0297
54.0271
54.0245
54.0219
54.0193
54.0167
54.0141
54.0116
54.009
54.0064
54.0038
54.0012
53.9986
53.996
53.9934
53.9908
53.9882
53.9856
53.983
53.9804
53.9778
53.9752
53.9726
53.97
53.9675
53.9649
53.9623
53.9597
53.9571
53.9545
53.9519
53.9493
53.9467
53.9441
53.9416
53.939
53.9364
53.9338
53.9312
53.9286
53.926
53.9235
53.9209
53.9183
53.9157
53.9131
53.9105
53.908
53.9054
53.9028
53.9002
53.8976
53.895
53.8925
53.8899
53.8873
53.8847
53.8822
53.8796
53.877
53.8744
53.8718
53.8693
53.8667
53.8641
53.8615
53.859
53.8564
53.8538
53.8512
53.8487
53.8461
53.8435
53.8409
53.8384
53.8358
53.8332
53.8306
53.8281
53.8255
53.8229
53.8204
53.8178
53.8152
53.8127
53.8101
53.8075
53.805
53.8024
53.7998
53.7973
53.7947
53.7921
53.7896
53.787
53.7844
53.7819
53.7793
53.7767
53.7742
53.7716
53.769
53.7665
53.7639
53.7614
53.7588
53.7562
53.7537
53.7511
53.7486
53.746
53.7434
53.7409
53.7383
53.7358
53.7332
53.7306
53.7281
53.7255
53.723
53.7204
53.7179
53.7153
53.7128
53.7102
53.7076
53.7051
53.7025
53.7
53.6974
53.6949
53.6923
53.6898
53.6872
53.6847
53.6821
53.6796
53.677
53.6745
53.6719
53.6694
53.6668
53.6643
53.6617
53.6592
53.6566
53.6541
53.6516
53.649
53.6465
53.6439
53.6414
53.6388
53.6363
53.6337
53.6312
53.6287
53.6261
53.6236
53.621
53.6185
53.6159
53.6134
53.6109
53.6083
53.6058
53.6033
53.6007
53.5982
53.5956
53.5931
53.5906
53.588
53.5855
53.583
53.5804
53.5779
53.5753
53.5728
53.5703
53.5677
53.5652
53.5627
53.5601
53.5576
53.5551
53.5525
53.55
53.5475
53.545
53.5424
53.5399
53.5374
53.5348
53.5323
53.5298
53.5273
53.5247
53.5222
53.5197
53.5171
53.5146
53.5121
53.5096
53.507
53.5045
53.502
53.4995
53.4969
53.4944
53.4919
53.4894
53.4869
53.4843
53.4818
53.4793
53.4768
53.4743
53.4717
53.4692
53.4667
53.4642
53.4617
53.4591
53.4566
53.4541
53.4516
53.4491
53.4466
53.444
53.4415
53.439
53.4365
53.434
53.4315
53.4289
53.4264
53.4239
53.4214
53.4189
53.4164
53.4139
53.4114
53.4089
53.4063
53.4038
53.4013
53.3988
53.3963
53.3938
53.3913
53.3888
53.3863
53.3838
53.3813
53.3788
53.3762
53.3737
53.3712
53.3687
53.3662
53.3637
53.3612
53.3587
53.3562
53.3537
53.3512
53.3487
53.3462
53.3437
53.3412
53.3387
53.3362
53.3337
53.3312
53.3287
53.3262
53.3237
53.3212
53.3187
53.3162
53.3137
53.3112
53.3087
53.3062
53.3037
53.3012
53.2987
53.2962
53.2938
53.2913
53.2888
53.2863
53.2838
53.2813
53.2788
53.2763
53.2738
53.2713
53.2688
53.2663
53.2639
53.2614
53.2589
53.2564
53.2539
53.2514
53.2489
53.2464
53.2439
53.2415
53.239
53.2365
53.234
53.2315
53.229
53.2265
53.2241
53.2216
53.2191
53.2166
53.2141
53.2117
53.2092
53.2067
53.2042
53.2017
53.1992
53.1968
53.1943
53.1918
53.1893
53.1869
53.1844
53.1819
53.1794
53.1769
53.1745
53.172
53.1695
53.167
53.1646
53.1621
53.1596
53.1571
53.1547
53.1522
53.1497
53.1472
53.1448
53.1423
53.1398
53.1374
53.1349
53.1324
53.1299
53.1275
53.125
53.1225
53.1201
53.1176
53.1151
53.1127
53.1102
53.1077
53.1053
53.1028
53.1003
53.0979
53.0954
53.0929
53.0905
53.088
53.0855
53.0831
53.0806
53.0782
53.0757
53.0732
53.0708
53.0683
53.0658
53.0634
53.0609
53.0585
53.056
53.0535
53.0511
53.0486
53.0462
53.0437
53.0413
53.0388
53.0363
53.0339
53.0314
53.029
53.0265
53.0241
53.0216
53.0192
53.0167
53.0143
53.0118
53.0094
53.0069
53.0044
53.002
52.9995
52.9971
52.9946
52.9922
52.9897
52.9873
52.9848
52.9824
52.9799
52.9775
52.9751
52.9726
52.9702
52.9677
52.9653
52.9628
52.9604
52.9579
52.9555
52.953
52.9506
52.9482
52.9457
52.9433
52.9408
52.9384
52.9359
52.9335
52.9311
52.9286
52.9262
52.9237
52.9213
52.9189
52.9164
52.914
52.9115
52.9091
52.9067
52.9042
52.9018
52.8994
52.8969
52.8945
52.8921
52.8896
52.8872
52.8848
52.8823
52.8799
52.8775
52.875
52.8726
52.8702
52.8677
52.8653
52.8629
52.8604
52.858
52.8556
52.8531
52.8507
52.8483
52.8459
52.8434
52.841
52.8386
52.8361
52.8337
52.8313
52.8289
52.8264
52.824
52.8216
52.8192
52.8167
52.8143
52.8119
52.8095
52.807
52.8046
52.8022
52.7998
52.7974
52.7949
52.7925
52.7901
52.7877
52.7853
52.7828
52.7804
52.778
52.7756
52.7732
52.7707
52.7683
52.7659
52.7635
52.7611
52.7587
52.7563
52.7538
52.7514
52.749
52.7466
52.7442
52.7418
52.7394
52.7369
52.7345
52.7321
52.7297
52.7273
52.7249
52.7225
52.7201
52.7177
52.7152
52.7128
52.7104
52.708
52.7056
52.7032
52.7008
52.6984
52.696
52.6936
52.6912
52.6888
52.6864
52.684
52.6816
52.6792
52.6768
52.6743
52.6719
52.6695
52.6671
52.6647
52.6623
52.6599
52.6575
52.6551
52.6527
52.6503
52.6479
52.6455
52.6431
52.6407
52.6383
52.6359
52.6336
52.6312
52.6288
52.6264
52.624
52.6216
52.6192
52.6168
52.6144
52.612
52.6096
52.6072
52.6048
52.6024
52.6
52.5976
52.5952
52.5929
52.5905
52.5881
52.5857
52.5833
52.5809
52.5785
52.5761
52.5737
52.5714
52.569
52.5666
52.5642
52.5618
52.5594
52.557
52.5547
52.5523
52.5499
52.5475
52.5451
52.5427
52.5403
52.538
52.5356
52.5332
52.5308
52.5284
52.5261
52.5237
52.5213
52.5189
52.5165
52.5142
52.5118
52.5094
52.507
52.5046
52.5023
52.4999
52.4975
52.4951
52.4928
52.4904
52.488
52.4856
52.4833
52.4809
52.4785
52.4761
52.4738
52.4714
52.469
52.4666
52.4643
52.4619
52.4595
52.4572
52.4548
52.4524
52.4501
52.4477
52.4453
52.4429
52.4406
52.4382
52.4358
52.4335
52.4311
52.4287
52.4264
52.424
52.4216
52.4193
52.4169
52.4145
52.4122
52.4098
52.4075
52.4051
52.4027
52.4004
52.398
52.3956
52.3933
52.3909
52.3886
52.3862
52.3838
52.3815
52.3791
52.3768
52.3744
52.3721
52.3697
52.3673
52.365
52.3626
52.3603
52.3579
52.3556
52.3532
52.3508
52.3485
52.3461
52.3438
52.3414
52.3391
52.3367
52.3344
52.332
52.3297
52.3273
52.325
52.3226
52.3203
52.3179
52.3156
52.3132
52.3109
52.3085
52.3062
52.3038
52.3015
52.2991
52.2968
52.2944
52.2921
52.2897
52.2874
52.2851
52.2827
52.2804
52.278
52.2757
52.2733
52.271
52.2687
52.2663
52.264
52.2616
52.2593
52.2569
52.2546
52.2523
52.2499
52.2476
52.2452
52.2429
52.2406
52.2382
52.2359
52.2336
52.2312
52.2289
52.2265
52.2242
52.2219
52.2195
52.2172
52.2149
52.2125
52.2102
52.2079
52.2055
52.2032
52.2009
52.1985
52.1962
52.1939
52.1915
52.1892
52.1869
52.1846
52.1822
52.1799
52.1776
52.1752
52.1729
52.1706
52.1683
52.1659
52.1636
52.1613
52.159
52.1566
52.1543
52.152
52.1497
52.1473
52.145
52.1427
52.1404
52.138
52.1357
52.1334
52.1311
52.1287
52.1264
52.1241
52.1218
52.1195
52.1171
52.1148
52.1125
52.1102
52.1079
52.1056
52.1032
52.1009
52.0986
52.0963
52.094
52.0917
52.0893
52.087
52.0847
52.0824
52.0801
52.0778
52.0755
52.0731
52.0708
52.0685
52.0662
52.0639
52.0616
52.0593
52.057
52.0546
52.0523
52.05
52.0477
52.0454
52.0431
52.0408
52.0385
52.0362
52.0339
52.0316
52.0293
52.027
52.0246
52.0223
52.02
52.0177
52.0154
52.0131
52.0108
52.0085
52.0062
52.0039
52.0016
51.9993
51.997
51.9947
51.9924
51.9901
51.9878
51.9855
51.9832
51.9809
51.9786
51.9763
51.974
51.9717
51.9694
51.9671
51.9648
51.9625
51.9602
51.9579
51.9556
51.9533
51.9511
51.9488
51.9465
51.9442
51.9419
51.9396
51.9373
51.935
51.9327
51.9304
51.9281
51.9258
51.9235
51.9213
51.919
51.9167
51.9144
51.9121
51.9098
51.9075
51.9052
51.903
51.9007
51.8984
51.8961
51.8938
51.8915
51.8892
51.887
51.8847
51.8824
51.8801
51.8778
51.8755
51.8732
51.871
51.8687
51.8664
51.8641
51.8618
51.8596
51.8573
51.855
51.8527
51.8504
51.8482
51.8459
51.8436
51.8413
51.8391
51.8368
51.8345
51.8322
51.8299
51.8277
51.8254
51.8231
51.8208
51.8186
51.8163
51.814
51.8118
51.8095
51.8072
51.8049
51.8027
51.8004
51.7981
51.7958
51.7936
51.7913
51.789
51.7868
51.7845
51.7822
51.78
51.7777
51.7754
51.7732
51.7709
51.7686
51.7664
51.7641
51.7618
51.7596
51.7573
51.755
51.7528
51.7505
51.7482
51.746
51.7437
51.7415
51.7392
51.7369
51.7347
51.7324
51.7301
51.7279
51.7256
51.7234
51.7211
51.7188
51.7166
51.7143
51.7121
51.7098
51.7076
51.7053
51.703
51.7008
51.6985
51.6963
51.694
51.6918
51.6895
51.6873
51.685
51.6828
51.6805
51.6782
51.676
51.6737
51.6715
51.6692
51.667
51.6647
51.6625
51.6602
51.658
51.6557
51.6535
51.6512
51.649
51.6467
51.6445
51.6422
51.64
51.6378
51.6355
51.6333
51.631
51.6288
51.6265
51.6243
51.622
51.6198
51.6176
51.6153
51.6131
51.6108
51.6086
51.6063
51.6041
51.6019
51.5996
51.5974
51.5951
51.5929
51.5907
51.5884
51.5862
51.5839
51.5817
51.5795
51.5772
51.575
51.5728
51.5705
51.5683
51.566
51.5638
51.5616
51.5593
51.5571
51.5549
51.5526
51.5504
51.5482
51.5459
51.5437
51.5415
51.5393
51.537
51.5348
51.5326
51.5303
51.5281
51.5259
51.5236
51.5214
51.5192
51.517
51.5147
51.5125
51.5103
51.508
51.5058
51.5036
51.5014
51.4991
51.4969
51.4947
51.4925
51.4902
51.488
51.4858
51.4836
51.4814
51.4791
51.4769
51.4747
51.4725
51.4702
51.468
51.4658
51.4636
51.4614
51.4592
51.4569
51.4547
51.4525
51.4503
51.4481
51.4458
51.4436
51.4414
51.4392
51.437
51.4348
51.4326
51.4303
51.4281
51.4259
51.4237
51.4215
51.4193
51.4171
51.4148
51.4126
51.4104
51.4082
51.406
51.4038
51.4016
51.3994
51.3972
51.395
51.3927
51.3905
51.3883
51.3861
51.3839
51.3817
51.3795
51.3773
51.3751
51.3729
51.3707
51.3685
51.3663
51.3641
51.3619
51.3597
51.3575
51.3552
51.353
51.3508
51.3486
51.3464
51.3442
51.342
51.3398
51.3376
51.3354
51.3332
51.331
51.3288
51.3266
51.3244
51.3222
51.32
51.3179
51.3157
51.3135
51.3113
51.3091
51.3069
51.3047
51.3025
51.3003
51.2981
51.2959
51.2937
51.2915
51.2893
51.2871
51.2849
51.2827
51.2806
51.2784
51.2762
51.274
51.2718
51.2696
51.2674
51.2652
51.263
51.2608
51.2587
51.2565
51.2543
51.2521
51.2499
51.2477
51.2455
51.2434
51.2412
51.239
51.2368
51.2346
51.2324
51.2303
51.2281
51.2259
51.2237
51.2215
51.2193
51.2172
51.215
51.2128
51.2106
51.2084
51.2063
51.2041
51.2019
51.1997
51.1975
51.1954
51.1932
51.191
51.1888
51.1867
51.1845
51.1823
51.1801
51.178
51.1758
51.1736
51.1714
51.1693
51.1671
51.1649
51.1627
51.1606
51.1584
51.1562
51.154
51.1519
51.1497
51.1475
51.1454
51.1432
51.141
51.1389
51.1367
51.1345
51.1324
51.1302
51.128
51.1259
51.1237
51.1215
51.1194
51.1172
51.115
51.1129
51.1107
51.1085
51.1064
51.1042
51.102
51.0999
51.0977
51.0956
51.0934
51.0912
51.0891
51.0869
51.0847
51.0826
51.0804
51.0783
51.0761
51.0739
51.0718
51.0696
51.0675
51.0653
51.0632
51.061
51.0588
51.0567
51.0545
51.0524
51.0502
51.0481
51.0459
51.0438
51.0416
51.0395
51.0373
51.0351
51.033
51.0308
51.0287
51.0265
51.0244
51.0222
51.0201
51.0179
51.0158
51.0136
51.0115
51.0093
51.0072
51.005
51.0029
51.0007
50.9986
50.9965
50.9943
50.9922
50.99
50.9879
50.9857
50.9836
50.9814
50.9793
50.9772
50.975
50.9729
50.9707
50.9686
50.9664
50.9643
50.9622
50.96
50.9579
50.9557
50.9536
50.9515
50.9493
50.9472
50.945
50.9429
50.9408
50.9386
50.9365
50.9344
50.9322
50.9301
50.9279
50.9258
50.9237
50.9215
50.9194
50.9173
50.9151
50.913
50.9109
50.9087
50.9066
50.9045
50.9023
50.9002
50.8981
50.8959
50.8938
50.8917
50.8896
50.8874
50.8853
50.8832
50.881
50.8789
50.8768
50.8747
50.8725
50.8704
50.8683
50.8662
50.864
50.8619
50.8598
50.8577
50.8555
50.8534
50.8513
50.8492
50.847
50.8449
50.8428
50.8407
50.8385
50.8364
50.8343
50.8322
50.8301
50.8279
50.8258
50.8237
50.8216
50.8195
50.8173
50.8152
50.8131
50.811