# vtk DataFile Version 2.0
vtk output
ASCII
DATASET STRUCTURED_GRID
DIMENSIONS 50 10 30
POINTS 15000 float
0 0 0
1 0 0
2 0 0
3 0 0
4 0 0
5 0 0
6 0 0
7 0 0
8 0 0
9 0 0
10 0 0
11 0 0
12 0 0
13 0 0
14 0 0
15 0 0
16 0 0
17 0 0
18 0 0
19 0 0
20 0 0
21 0 0
22 0 0
23 0 0
24 0 0
25 0 0
26 0 0
27 0 0
28 0 0
29 0 0
30 0 0
31 0 0
32 0 0
33 0 0
34 0 0
35 0 0
36 0 0
37 0 0
38 0 0
39 0 0
40 0 0
41 0 0
42 0 0
43 0 0
44 0 0
45 0 0
46 0 0
47 0 0
48 0 0
49 0 0
0 1 0
1 1 0
2 1 0
3 1 0
4 1 0
5 1 0
6 1 0
7 1 0
8 1 0
9 1 0
10 1 0
11 1 0
12 1 0
13 1 0
14 1 0
15 1 0
16 1 0
17 1 0
18 1 0
19 1 0
20 1 0
21 1 0
22 1 0
23 1 0
24 1 0
25 1 0
26 1 0
27 1 0
28 1 0
29 1 0
30 1 0
31 1 0
32 1 0
33 1 0
34 1 0
35 1 0
36 1 0
37 1 0
38 1 0
39 1 0
40 1 0
41 1 0
42 1 0
43 1 0
44 1 0
45 1 0
46 1 0
47 1 0
48 1 0
49 1 0
0 2 0
1 2 0
2 2 0
3 2 0
4 2 0
5 2 0
6 2 0
7 2 0
8 2 0
9 2 0
10 2 0
11 2 0
12 2 0
13 2 0
14 2 0
15 2 0
16 2 0
17 2 0
18 2 0
19 2 0
20 2 0
21 2 0
22 2 0
23 2 0
24 2 0
25 2 0
26 2 0
27 2 0
28 2 0
29 2 0
30 2 0
31 2 0
32 2 0
33 2 0
34 2 0
35 2 0
36 2 0
37 2 0
38 2 0
39 2 0
40 2 0
41 2 0
42 2 0
43 2 0
44 2 0
45 2 0
46 2 0
47 2 0
48 2 0
49 2 0
0 3 0
1 3 0
2 3 0
3 3 0
4 3 0
5 3 0
6 3 0
7 3 0
8 3 0
9 3 0
10 3 0
11 3 0
12 3 0
13 3 0
14 3 0
15 3 0
16 3 0
17 3 0
18 3 0
19 3 0
20 3 0
21 3 0
22 3 0
23 3 0
24 3 0
25 3 0
26 3 0
27 3 0
28 3 0
29 3 0
30 3 0
31 3 0
32 3 0
33 3 0
34 3 0
35 3 0
36 3 0
37 3 0
38 3 0
39 3 0
40 3 0
41 3 0
42 3 0
43 3 0
44 3 0
45 3 0
46 3 0
47 3 0
48 3 0
49 3 0
0 4 0
1 4 0
2 4 0
3 4 0
4 4 0
5 4 0
6 4 0
7 4 0
8 4 0
9 4 0
10 4 0
11 4 0
12 4 0
13 4 0
14 4 0
15 4 0
16 4 0
17 4 0
18 4 0
19 4 0
20 4 0
21 4 0
22 4 0
23 4 0
24 4 0
25 4 0
26 4 0
27 4 0
28 4 0
29 4 0
30 4 0
31 4 0
32 4 0
33 4 0
34 4 0
35 4 0
36 4 0
37 4 0
38 4 0
39 4 0
40 4 0
41 4 0
42 4 0
43 4 0
44 4 0
45 4 0
46 4 0
47 4 0
48 4 0
49 4 0
0 5 0
1 5 0
2 5 0
3 5 0
4 5 0
5 5 0
6 5 0
7 5 0
8 5 0
9 5 0
10 5 0
11 5 0
12 5 0
13 5 0
14 5 0
15 5 0
16 5 0
17 5 0
18 5 0
19 5 0
20 5 0
21 5 0
22 5 0
23 5 0
24 5 0
25 5 0
26 5 0
27 5 0
28 5 0
29 5 0
30 5 0
31 5 0
32 5 0
33 5 0
34 5 0
35 5 0
36 5 0
37 5 0
38 5 0
39 5 0
40 5 0
41 5 0
42 5 0
43 5 0
44 5 0
45 5 0
46 5 0
47 5 0
48 5 0
49 5 0
0 6 0
1 6 0
2 6 0
3 6 0
4 6 0
5 6 0
6 6 0
7 6 0
8 6 0
9 6 0
10 6 0
11 6 0
12 6 0
13 6 0
14 6 0
15 6 0
16 6 0
17 6 0
18 6 0
19 6 0
20 6 0
21 6 0
22 6 0
23 6 0
24 6 0
25 6 0
26 6 0
27 6 0
28 6 0
29 6 0
30 6 0
31 6 0
32 6 0
33 6 0
34 6 0
35 6 0
36 6 0
37 6 0
38 6 0
39 6 0
40 6 0
41 6 0
42 6 0
43 6 0
44 6 0
45 6 0
46 6 0
47 6 0
48 6 0
49 6 0
0 7 0
1 7 0
2 7 0
3 7 0
4 7 0
5 7 0
6 7 0
7 7 0
8 7 0
9 7 0
10 7 0
11 7 0
12 7 0
13 7 0
14 7 0
15 7 0
16 7 0
17 7 0
18 7 0
19 7 0
20 7 0
21 7 0
22 7 0
23 7 0
24 7 0
25 7 0
26 7 0
27 7 0
28 7 0
29 7 0
30 7 0
31 7 0
32 7 0
33 7 0
34 7 0
35 7 0
36 7 0
37 7 0
38 7 0
39 7 0
40 7 0
41 7 0
42 7 0
43 7 0
44 7 0
45 7 0
46 7 0
47 7 0
48 7 0
49 7 0
0 8 0
1 8 0
2 8 0
3 8 0
4 8 0
5 8 0
6 8 0
7 8 0
8 8 0
9 8 0
10 8 0
11 8 0
12 8 0
13 8 0
14 8 0
15 8 0
16 8 0
17 8 0
18 8 0
19 8 0
20 8 0
21 8 0
22 8 0
23 8 0
24 8 0
25 8 0
26 8 0
27 8 0
28 8 0
29 8 0
30 8 0
31 8 0
32 8 0
33 8 0
34 8 0
35 8 0
36 8 0
37 8 0
38 8 0
39 8 0
40 8 0
41 8 0
42 8 0
43 8 0
44 8 0
45 8 0
46 8 0
47 8 0
48 8 0
49 8 0
0 9 0
1 9 0
2 9 0
3 9 0
4 9 0
5 9 0
6 9 0
7 9 0
8 9 0
9 9 0
10 9 0
11 9 0
12 9 0
13 9 0
14 9 0
15 9 0
16 9 0
17 9 0
18 9 0
19 9 0
20 9 0
21 9 0
22 9 0
23 9 0
24 9 0
25 9 0
26 9 0
27 9 0
28 9 0
29 9 0
30 9 0
31 9 0
32 9 0
33 9 0
34 9 0
35 9 0
36 9 0
37 9 0
38 9 0
39 9 0
40 9 0
41 9 0
42 9 0
43 9 0
44 9 0
45 9 0
46 9 0
47 9 0
48 9 0
49 9 0
0 0 1
1 0 1
2 0 1
3 0 1
4 0 1
5 0 1
6 0 1
7 0 1
8 0 1
9 0 1
10 0 1
11 0 1
12 0 1
13 0 1
14 0 1
15 0 1
16 0 1
17 0 1
18 0 1
19 0 1
20 0 1
21 0 1
22 0 1
23 0 1
24 0 1
25 0 1
26 0 1
27 0 1
28 0 1
29 0 1
30 0 1
31 0 1
32 0 1
33 0 1
34 0 1
35 0 1
36 0 1
37 0 1
38 0 1
39 0 1
40 0 1
41 0 1
42 0 1
43 0 1
44 0 1
45 0 1
46 0 1
47 0 1
48 0 1
49 0 1
0 1 1
1 1 1
2 1 1
3 1 1
4 1 1
5 1 1
6 1 1
7 1 1
8 1 1
9 1 1
10 1 1
11 1 1
12 1 1
13 1 1
14 1 1
15 1 1
16 1 1
17 1 1
18 1 1
19 1 1
20 1 1
21 1 1
22 1 1
23 1 1
24 1 1
25 1 1
26 1 1
27 1 1
28 1 1
29 1 1
30 1 1
31 1 1
32 1 1
33 1 1
34 1 1
35 1 1
36 1 1
37 1 1
38 1 1
39 1 1
40 1 1
41 1 1
42 1 1
43 1 1
44 1 1
45 1 1
46 1 1
47 1 1
48 1 1
49 1 1
0 2 1
1 2 1
2 2 1
3 2 1
4 2 1
5 2 1
6 2 1
7 2 1
8 2 1
9 2 1
10 2 1
11 2 1
12 2 1
13 2 1
14 2 1
15 2 1
16 2 1
17 2 1
18 2 1
19 2 1
20 2 1
21 2 1
22 2 1
23 2 1
24 2 1
25 2 1
26 2 1
27 2 1
28 2 1
29 2 1
30 2 1
31 2 1
32 2 1
33 2 1
34 2 1
35 2 1
36 2 1
37 2 1
38 2 1
39 2 1
40 2 1
41 2 1
42 2 1
43 2 1
44 2 1
45 2 1
46 2 1
47 2 1
48 2 1
49 2 1
0 3 1
1 3 1
2 3 1
3 3 1
4 3 1
5 3 1
6 3 1
7 3 1
8 3 1
9 3 1
10 3 1
11 3 1
12 3 1
13 3 1
14 3 1
15 3 1
16 3 1
17 3 1
18 3 1
19 3 1
20 3 1
21 3 1
22 3 1
23 3 1
24 3 1
25 3 1
26 3 1
27 3 1
28 3 1
29 3 1
30 3 1
31 3 1
32 3 1
33 3 1
34 3 1
35 3 1
36 3 1
37 3 1
38 3 1
39 3 1
40 3 1
41 3 1
42 3 1
43 3 1
44 3 1
45 3 1
46 3 1
47 3 1
48 3 1
49 3 1
0 4 1
1 4 1
2 4 1
3 4 1
4 4 1
5 4 1
6 4 1
7 4 1
8 4 1
9 4 1
10 4 1
11 4 1
12 4 1
13 4 1
14 4 1
15 4 1
16 4 1
17 4 1
18 4 1
19 4 1
20 4 1
21 4 1
22 4 1
23 4 1
24 4 1
25 4 1
26 4 1
27 4 1
28 4 1
29 4 1
30 4 1
31 4 1
32 4 1
33 4 1
34 4 1
35 4 1
36 4 1
37 4 1
38 4 1
39 4 1
40 4 1
41 4 1
42 4 1
43 4 1
44 4 1
45 4 1
46 4 1
47 4 1
48 4 1
49 4 1
0 5 1
1 5 1
2 5 1
3 5 1
4 5 1
5 5 1
6 5 1
7 5 1
8 5 1
9 5 1
10 5 1
11 5 1
12 5 1
13 5 1
14 5 1
15 5 1
16 5 1
17 5 1
18 5 1
19 5 1
20 5 1
21 5 1
22 5 1
23 5 1
24 5 1
25 5 1
26 5 1
27 5 1
28 5 1
29 5 1
30 5 1
31 5 1
32 5 1
33 5 1
34 5 1
35 5 1
36 5 1
37 5 1
38 5 1
39 5 1
40 5 1
41 5 1
42 5 1
43 5 1
44 5 1
45 5 1
46 5 1
47 5 1
48 5 1
49 5 1
0 6 1
1 6 1
2 6 1
3 6 1
4 6 1
5 6 1
6 6 1
7 6 1
8 6 1
9 6 1
10 6 1
11 6 1
12 6 1
13 6 1
14 6 1
15 6 1
16 6 1
17 6 1
18 6 1
19 6 1
20 6 1
21 6 1
22 6 1
23 6 1
24 6 1
25 6 1
26 6 1
27 6 1
28 6 1
29 6 1
30 6 1
31 6 1
32 6 1
33 6 1
34 6 1
35 6 1
36 6 1
37 6 1
38 6 1
39 6 1
40 6 1
41 6 1
42 6 1
43 6 1
44 6 1
45 6 1
46 6 1
47 6 1
48 6 1
49 6 1
0 7 1
1 7 1
2 7 1
3 7 1
4 7 1
5 7 1
6 7 1
7 7 1
8 7 1
9 7 1
10 7 1
11 7 1
12 7 1
13 7 1
14 7 1
15 7 1
16 7 1
17 7 1
18 7 1
19 7 1
20 7 1
21 7 1
22 7 1
23 7 1
24 7 1
25 7 1
26 7 1
27 7 1
28 7 1
29 7 1
30 7 1
31 7 1
32 7 1
33 7 1
34 7 1
35 7 1
36 7 1
37 7 1
38 7 1
39 7 1
40 7 1
41 7 1
42 7 1
43 7 1
44 7 1
45 7 1
46 7 1
47 7 1
48 7 1
49 7 1
0 8 1
1 8 1
2 8 1
3 8 1
4 8 1
5 8 1
6 8 1
7 8 1
8 8 1
9 8 1
10 8 1
11 8 1
12 8 1
13 8 1
14 8 1
15 8 1
16 8 1
17 8 1
18 8 1
19 8 1
20 8 1
21 8 1
22 8 1
23 8 1
24 8 1
25 8 1
26 8 1
27 8 1
28 8 1
29 8 1
30 8 1
31 8 1
32 8 1
33 8 1
34 8 1
35 8 1
36 8 1
37 8 1
38 8 1
39 8 1
40 8 1
41 8 1
42 8 1
43 8 1
44 8 1
45 8 1
46 8 1
47 8 1
48 8 1
49 8 1
0 9 1
1 9 1
2 9 1
3 9 1
4 9 1
5 9 1
6 9 1
7 9 1
8 9 1
9 9 1
10 9 1
11 9 1
12 9 1
13 9 1
14 9 1
15 9 1
16 9 1
17 9 1
18 9 1
19 9 1
20 9 1
21 9 1
22 9 1
23 9 1
24 9 1
25 9 1
26 9 1
27 9 1
28 9 1
29 9 1
30 9 1
31 9 1
32 9 1
33 9 1
34 9 1
35 9 1
36 9 1
37 9 1
38 9 1
39 9 1
40 9 1
41 9 1
42 9 1
43 9 1
44 9 1
45 9 1
46 9 1
47 9 1
48 9 1
49 9 1
0 0 2
1 0 2
2 0 2
3 0 2
4 0 2
5 0 2
6 0 2
7 0 2
8 0 2
9 0 2
10 0 2
11 0 2
12 0 2
13 0 2
14 0 2
15 0 2
16 0 2
17 0 2
18 0 2
19 0 2
20 0 2
21 0 2
22 0 2
23 0 2
24 0 2
25 0 2
26 0 2
27 0 2
28 0 2
29 0 2
30 0 2
31 0 2
32 0 2
33 0 2
34 0 2
35 0 2
36 0 2
37 0 2
38 0 2
39 0 2
40 0 2
41 0 2
42 0 2
43 0 2
44 0 2
45 0 2
46 0 2
47 0 2
48 0 2
49 0 2
0 1 2
1 1 2
2 1 2
3 1 2
4 1 2
5 1 2
6 1 2
7 1 2
8 1 2
9 1 2
10 1 2
11 1 2
12 1 2
13 1 2
14 1 2
15 1 2
16 1 2
17 1 2
18 1 2
19 1 2
20 1 2
21 1 2
22 1 2
23 1 2
24 1 2
25 1 2
26 1 2
27 1 2
28 1 2
29 1 2
30 1 2
31 1 2
32 1 2
33 1 2
34 1 2
35 1 2
36 1 2
37 1 2
38 1 2
39 1 2
40 1 2
41 1 2
42 1 2
43 1 2
44 1 2
45 1 2
46 1 2
47 1 2
48 1 2
49 1 2
0 2 2
1 2 2
2 2 2
3 2 2
4 2 2
5 2 2
6 2 2
7 2 2
8 2 2
9 2 2
10 2 2
11 2 2
12 2 2
13 2 2
14 2 2
15 2 2
16 2 2
17 2 2
18 2 2
19 2 2
20 2 2
21 2 2
22 2 2
23 2 2
24 2 2
25 2 2
26 2 2
27 2 2
28 2 2
29 2 2
30 2 2
31 2 2
32 2 2
33 2 2
34 2 2
35 2 2
36 2 2
37 2 2
38 2 2
39 2 2
40 2 2
41 2 2
42 2 2
43 2 2
44 2 2
45 2 2
46 2 2
47 2 2
48 2 2
49 2 2
0 3 2
1 3 2
2 3 2
3 3 2
4 3 2
5 3 2
6 3 2
7 3 2
8 3 2
9 3 2
10 3 2
11 3 2
12 3 2
13 3 2
14 3 2
15 3 2
16 3 2
17 3 2
18 3 2
19 3 2
20 3 2
21 3 2
22 3 2
23 3 2
24 3 2
25 3 2
26 3 2
27 3 2
28 3 2
29 3 2
30 3 2
31 3 2
32 3 2
33 3 2
34 3 2
35 3 2
36 3 2
37 3 2
38 3 2
39 3 2
40 3 2
41 3 2
42 3 2
43 3 2
44 3 2
45 3 2
46 3 2
47 3 2
48 3 2
49 3 2
0 4 2
1 4 2
2 4 2
3 4 2
4 4 2
5 4 2
6 4 2
7 4 2
8 4 2
9 4 2
10 4 2
11 4 2
12 4 2
13 4 2
14 4 2
15 4 2
16 4 2
17 4 2
18 4 2
19 4 2
20 4 2
21 4 2
22 4 2
23 4 2
24 4 2
25 4 2
26 4 2
27 4 2
28 4 2
29 4 2
30 4 2
31 4 2
32 4 2
33 4 2
34 4 2
35 4 2
36 4 2
37 4 2
38 4 2
39 4 2
40 4 2
41 4 2
42 4 2
43 4 2
44 4 2
45 4 2
46 4 2
47 4 2
48 4 2
49 4 2
0 5 2
1 5 2
2 5 2
3 5 2
4 5 2
5 5 2
6 5 2
7 5 2
8 5 2
9 5 2
10 5 2
11 5 2
12 5 2
13 5 2
14 5 2
15 5 2
16 5 2
17 5 2
18 5 2
19 5 2
20 5 2
21 5 2
22 5 2
23 5 2
24 5 2
25 5 2
26 5 2
27 5 2
28 5 2
29 5 2
30 5 2
31 5 2
32 5 2
33 5 2
34 5 2
35 5 2
36 5 2
37 5 2
38 5 2
39 5 2
40 5 2
41 5 2
42 5 2
43 5 2
44 5 2
45 5 2
46 5 2
47 5 2
48 5 2
49 5 2
0 6 2
1 6 2
2 6 2
3 6 2
4 6 2
5 6 2
6 6 2
7 6 2
8 6 2
9 6 2
10 6 2
11 6 2
12 6 2
13 6 2
14 6 2
15 6 2
16 6 2
17 6 2
18 6 2
19 6 2
20 6 2
21 6 2
22 6 2
23 6 2
24 6 2
25 6 2
26 6 2
27 6 2
28 6 2
29 6 2
30 6 2
31 6 2
32 6 2
33 6 2
34 6 2
35 6 2
36 6 2
37 6 2
38 6 2
39 6 2
40 6 2
41 6 2
42 6 2
43 6 2
44 6 2
45 6 2
46 6 2
47 6 2
48 6 2
49 6 2
0 7 2
1 7 2
2 7 2
3 7 2
4 7 2
5 7 2
6 7 2
7 7 2
8 7 2
9 7 2
10 7 2
11 7 2
12 7 2
13 7 2
14 7 2
15 7 2
16 7 2
17 7 2
18 7 2
19 7 2
20 7 2
21 7 2
22 7 2
23 7 2
24 7 2
25 7 2
26 7 2
27 7 2
28 7 2
29 7 2
30 7 2
31 7 2
32 7 2
33 7 2
34 7 2
35 7 2
36 7 2
37 7 2
38 7 2
39 7 2
40 7 2
41 7 2
42 7 2
43 7 2
44 7 2
45 7 2
46 7 2
47 7 2
48 7 2
49 7 2
0 8 2
1 8 2
2 8 2
3 8 2
4 8 2
5 8 2
6 8 2
7 8 2
8 8 2
9 8 2
10 8 2
11 8 2
12 8 2
13 8 2
14 8 2
15 8 2
16 8 2
17 8 2
18 8 2
19 8 2
20 8 2
21 8 2
22 8 2
23 8 2
24 8 2
25 8 2
26 8 2
27 8 2
28 8 2
29 8 2
30 8 2
31 8 2
32 8 2
33 8 2
34 8 2
35 8 2
36 8 2
37 8 2
38 8 2
39 8 2
40 8 2
41 8 2
42 8 2
43 8 2
44 8 2
45 8 2
46 8 2
47 8 2
48 8 2
49 8 2
0 9 2
1 9 2
2 9 2
3 9 2
4 9 2
[...]
POINT_DATA 15000
SCALARS sol332 float
LOOKUP_TABLE default
58.4277
58.4247
58.4216
58.4186
58.4155
58.4125
58.4094
58.4064
58.4033
58.4003
58.3973
58.3942
58.3912
58.3881
58.3851
58.382
58.379
58.3759
58.3729
58.3699
58.3668
58.3638
58.3607
58.3577
58.3547
58.3516
58.3486
58.3455
58.3425
58.3395
58.3364
58.3334
58.3304
58.3273
58.3243
58.3213
58.3182
58.3152
58.3122
58.3091
58.3061
58.3031
58.3
58.297
58.294
58.2909
58.2879
58.2849
58.2818
58.2788
58.2758
58.2727
58.2697
58.2667
58.2637
58.2606
58.2576
58.2546
58.2516
58.2485
58.2455
58.2425
58.2395
58.2364
58.2334
58.2304
58.2274
58.2243
58.2213
58.2183
58.2153
58.2123
58.2092
58.2062
58.2032
58.2002
58.1972
58.1941
58.1911
58.1881
58.1851
58.1821
58.1791
58.176
58.173
58.17
58.167
58.164
58.161
58.158
58.155
58.1519
58.1489
58.1459
58.1429
58.1399
58.1369
58.1339
58.1309
58.1279
58.1248
58.1218
58.1188
58.1158
58.1128
58.1098
58.1068
58.1038
58.1008
58.0978
58.0948
58.0918
58.0888
58.0858
58.0828
58.0798
58.0768
58.0738
58.0708
58.0678
58.0648
58.0618
58.0588
58.0558
58.0528
58.0498
58.0468
58.0438
58.0408
58.0378
58.0348
58.0318
58.0288
58.0258
58.0228
58.0198
58.0168
58.0138
58.0108
58.0078
58.0048
58.0018
57.9988
57.9958
57.9929
57.9899
57.9869
57.9839
57.9809
57.9779
57.9749
57.9719
57.9689
57.966
57.963
57.96
57.957
57.954
57.951
57.948
57.945
57.9421
57.9391
57.9361
57.9331
57.9301
57.9271
57.9242
57.9212
57.9182
57.9152
57.9122
57.9093
57.9063
57.9033
57.9003
57.8973
57.8944
57.8914
57.8884
57.8854
57.8825
57.8795
57.8765
57.8735
57.8706
57.8676
57.8646
57.8616
57.8587
57.8557
57.8527
57.8497
57.8468
57.8438
57.8408
57.8379
57.8349
57.8319
57.829
57.826
57.823
57.82
57.8171
57.8141
57.8111
57.8082
57.8052
57.8023
57.7993
57.7963
57.7934
57.7904
57.7874
57.7845
57.7815
57.7785
57.7756
57.7726
57.7697
57.7667
57.7637
57.7608
57.7578
57.7549
57.7519
57.7489
57.746
57.743
57.7401
57.7371
57.7342
57.7312
57.7282
57.7253
57.7223
57.7194
57.7164
57.7135
57.7105
57.7076
57.7046
57.7017
57.6987
57.6958
57.6928
57.6899
57.6869
57.684
57.681
57.6781
57.6751
57.6722
57.6692
57.6663
57.6633
57.6604
57.6574
57.6545
57.6515
57.6486
57.6456
57.6427
57.6398
57.6368
57.6339
57.6309
57.628
57.625
57.6221
57.6192
57.6162
57.6133
57.6103
57.6074
57.6045
57.6015
57.5986
57.5956
57.5927
57.5898
57.5868
57.5839
57.581
57.578
57.5751
57.5722
57.5692
57.5663
57.5634
57.5604
57.5575
57.5546
57.5516
57.5487
57.5458
57.5428
57.5399
57.537
57.534
57.5311
57.5282
57.5253
57.5223
57.5194
57.5165
57.5136
57.5106
57.5077
57.5048
57.5018
57.4989
57.496
57.4931
57.4902
57.4872
57.4843
57.4814
57.4785
57.4755
57.4726
57.4697
57.4668
57.4639
57.4609
57.458
57.4551
57.4522
57.4493
57.4463
57.4434
57.4405
57.4376
57.4347
57.4318
57.4288
57.4259
57.423
57.4201
57.4172
57.4143
57.4114
57.4085
57.4055
57.4026
57.3997
57.3968
57.3939
57.391
57.3881
57.3852
57.3823
57.3794
57.3764
57.3735
57.3706
57.3677
57.3648
57.3619
57.359
57.3561
57.3532
57.3503
57.3474
57.3445
57.3416
57.3387
57.3358
57.3329
57.33
57.3271
57.3242
57.3213
57.3184
57.3155
57.3126
57.3097
57.3068
57.3039
57.301
57.2981
57.2952
57.2923
57.2894
57.2865
57.2836
57.2807
57.2778
57.2749
57.272
57.2691
57.2662
57.2633
57.2604
57.2575
57.2547
57.2518
57.2489
57.246
57.2431
57.2402
57.2373
57.2344
57.2315
57.2287
57.2258
57.2229
57.22
57.2171
57.2142
57.2113
57.2084
57.2056
57.2027
57.1998
57.1969
57.194
57.1911
57.1883
57.1854
57.1825
57.1796
57.1767
57.1739
57.171
57.1681
57.1652
57.1623
57.1595
57.1566
57.1537
57.1508
57.1479
57.1451
57.1422
57.1393
57.1364
57.1336
57.1307
57.1278
57.1249
57.1221
57.1192
57.1163
57.1134
57.1106
57.1077
57.1048
57.102
57.0991
57.0962
57.0934
57.0905
57.0876
57.0847
57.0819
57.079
57.0761
57.0733
57.0704
57.0675
57.0647
57.0618
57.0589
57.0561
57.0532
57.0504
57.0475
57.0446
57.0418
57.0389
57.036
57.0332
57.0303
57.0275
57.0246
57.0217
57.0189
57.016
57.0132
57.0103
57.0074
57.0046
57.0017
56.9989
56.996
56.9932
56.9903
56.9875
56.9846
56.9817
56.9789
56.976
56.9732
56.9703
56.9675
56.9646
56.9618
56.9589
56.9561
56.9532
56.9504
56.9475
56.9447
56.9418
56.939
56.9361
56.9333
56.9304
56.9276
56.9247
56.9219
56.919
56.9162
56.9134
56.9105
56.9077
56.9048
56.902
56.8991
56.8963
56.8934
56.8906
56.8878
56.8849
56.8821
56.8792
56.8764
56.8736
56.8707
56.8679
56.865
56.8622
56.8594
56.8565
56.8537
56.8509
56.848
56.8452
56.8424
56.8395
56.8367
56.8338
56.831
56.8282
56.8253
56.8225
56.8197
56.8169
56.814
56.8112
56.8084
56.8055
56.8027
56.7999
56.797
56.7942
56.7914
56.7886
56.7857
56.7829
56.7801
56.7772
56.7744
56.7716
56.7688
56.7659
56.7631
56.7603
56.7575
56.7546
56.7518
56.749
56.7462
56.7434
56.7405
56.7377
56.7349
56.7321
56.7293
56.7264
56.7236
56.7208
56.718
56.7152
56.7123
56.7095
56.7067
56.7039
56.7011
56.6983
56.6954
56.6926
56.6898
56.687
56.6842
56.6814
56.6786
56.6758
56.6729
56.6701
56.6673
56.6645
56.6617
56.6589
56.6561
56.6533
56.6505
56.6477
56.6448
56.642
56.6392
56.6364
56.6336
56.6308
56.628
56.6252
56.6224
56.6196
56.6168
56.614
56.6112
56.6084
56.6056
56.6028
56.6
56.5972
56.5944
56.5916
56.5888
56.586
56.5832
56.5804
56.5776
56.5748
56.572
56.5692
56.5664
56.5636
56.5608
56.558
56.5552
56.5524
56.5496
56.5468
56.544
56.5412
56.5384
56.5356
56.5328
56.53
56.5272
56.5245
56.5217
56.5189
56.5161
56.5133
56.5105
56.5077
56.5049
56.5021
56.4993
56.4966
56.4938
56.491
56.4882
56.4854
56.4826
56.4798
56.4771
56.4743
56.4715
56.4687
56.4659
56.4631
56.4604
56.4576
56.4548
56.452
56.4492
56.4464
56.4437
56.4409
56.4381
56.4353
56.4325
56.4298
56.427
56.4242
56.4214
56.4187
56.4159
56.4131
56.4103
56.4076
56.4048
56.402
56.3992
56.3965
56.3937
56.3909
56.3881
56.3854
56.3826
56.3798
56.377
56.3743
56.3715
56.3687
56.366
56.3632
56.3604
56.3577
56.3549
56.3521
56.3494
56.3466
56.3438
56.3411
56.3383
56.3355
56.3328
56.33
56.3272
56.3245
56.3217
56.3189
56.3162
56.3134
56.3107
56.3079
56.3051
56.3024
56.2996
56.2968
56.2941
56.2913
56.2886
56.2858
56.2831
56.2803
56.2775
56.2748
56.272
56.2693
56.2665
56.2638
56.261
56.2582
56.2555
56.2527
56.25
56.2472
56.2445
56.2417
56.239
56.2362
56.2335
56.2307
56.228
56.2252
56.2225
56.2197
56.217
56.2142
56.2115
56.2087
56.206
56.2032
56.2005
56.1977
56.195
56.1922
56.1895
56.1868
56.184
56.1813
56.1785
56.1758
56.173
56.1703
56.1676
56.1648
56.1621
56.1593
56.1566
56.1538
56.1511
56.1484
56.1456
56.1429
56.1402
56.1374
56.1347
56.1319
56.1292
56.1265
56.1237
56.121
56.1183
56.1155
56.1128
56.1101
56.1073
56.1046
56.1019
56.0991
56.0964
56.0937
56.0909
56.0882
56.0855
56.0827
56.08
56.0773
56.0745
56.0718
56.0691
56.0664
56.0636
56.0609
56.0582
56.0555
56.0527
56.05
56.0473
56.0445
56.0418
56.0391
56.0364
56.0337
56.0309
56.0282
56.0255
56.0228
56.02
56.0173
56.0146
56.0119
56.0092
56.0064
56.0037
56.001
55.9983
55.9956
55.9928
55.9901
55.9874
55.9847
55.982
55.9793
55.9765
55.9738
55.9711
55.9684
55.9657
55.963
55.9603
55.9575
55.9548
55.9521
55.9494
55.9467
55.944
55.9413
55.9386
55.9359
55.9331
55.9304
55.9277
55.925
55.9223
55.9196
55.9169
55.9142
55.9115
55.9088
55.9061
55.9034
55.9007
55.898
55.8953
55.8925
55.8898
55.8871
55.8844
55.8817
55.879
55.8763
55.8736
55.8709
55.8682
55.8655
55.8628
55.8601
55.8574
55.8547
55.852
55.8493
55.8466
55.8439
55.8412
55.8386
55.8359
55.8332
55.8305
55.8278
55.8251
55.8224
55.8197
55.817
55.8143
55.8116
55.8089
55.8062
55.8035
55.8008
55.7982
55.7955
55.7928
55.7901
55.7874
55.7847
55.782
55.7793
55.7766
55.774
55.7713
55.7686
55.7659
55.7632
55.7605
55.7578
55.7552
55.7525
55.7498
55.7471
55.7444
55.7417
55.7391
55.7364
55.7337
55.731
55.7283
55.7257
55.723
55.7203
55.7176
55.7149
55.7123
55.7096
55.7069
55.7042
55.7015
55.6989
55.6962
55.6935
55.6908
55.6882
55.6855
55.6828
55.6801
55.6775
55.6748
55.6721
55.6694
55.6668
55.6641
55.6614
55.6588
55.6561
55.6534
55.6508
55.6481
55.6454
55.6427
55.6401
55.6374
55.6347
55.6321
55.6294
55.6267
55.6241
55.6214
55.6187
55.6161
55.6134
55.6107
55.6081
55.6054
55.6028
55.6001
55.5974
55.5948
55.5921
55.5894
55.5868
55.5841
55.5815
55.5788
55.5761
55.5735
55.5708
55.5682
55.5655
55.5629
55.5602
55.5575
55.5549
55.5522
55.5496
55.5469
55.5443
55.5416
55.539
55.5363
55.5336
55.531
55.5283
55.5257
55.523
55.5204
55.5177
55.5151
55.5124
55.5098
55.5071
55.5045
55.5018
55.4992
55.4965
55.4939
55.4912
55.4886
55.486
55.4833
55.4807
55.478
55.4754
55.4727
55.4701
55.4674
55.4648
55.4622
55.4595
55.4569
55.4542
55.4516
55.4489
55.4463
55.4437
55.441
55.4384
55.4357
55.4331
55.4305
55.4278
55.4252
55.4225
55.4199
55.4173
55.4146
55.412
55.4094
55.4067
55.4041
55.4015
55.3988
55.3962
55.3936
55.3909
55.3883
55.3857
55.383
55.3804
55.3778
55.3751
55.3725
55.3699
55.3672
55.3646
55.362
55.3594
55.3567
55.3541
55.3515
55.3488
55.3462
55.3436
55.341
55.3383
55.3357
55.3331
55.3305
55.3278
55.3252
55.3226
55.32
55.3173
55.3147
55.3121
55.3095
55.3069
55.3042
55.3016
55.299
55.2964
55.2938
55.2911
55.2885
55.2859
55.2833
55.2807
55.2781
55.2754
55.2728
55.2702
55.2676
55.265
55.2624
55.2597
55.2571
55.2545
55.2519
55.2493
55.2467
55.2441
55.2414
55.2388
55.2362
55.2336
55.231
55.2284
55.2258
55.2232
55.2206
55.218
55.2154
55.2127
55.2101
55.2075
55.2049
55.2023
55.1997
55.1971
55.1945
55.1919
55.1893
55.1867
55.1841
55.1815
55.1789
55.1763
55.1737
55.1711
55.1685
55.1659
55.1633
55.1607
55.1581
55.1555
55.1529
55.1503
55.1477
55.1451
55.1425
55.1399
55.1373
55.1347
55.1321
55.1295
55.1269
55.1243
55.1217
55.1191
55.1165
55.1139
55.1113
55.1087
55.1061
55.1035
55.101
55.0984
55.0958
55.0932
55.0906
55.088
55.0854
55.0828
55.0802
55.0776
55.0751
55.0725
55.0699
55.0673
55.0647
55.0621
55.0595
55.057
55.0544
55.0518
55.0492
55.0466
55.044
55.0414
55.0389
55.0363
55.0337
55.0311
55.0285
55.026
55.0234
55.0208
55.0182
55.0156
55.0131
55.0105
55.0079
55.0053
55.0027
55.0002
54.9976
54.995
54.9924
54.9899
54.9873
54.9847
54.9821
54.9796
54.977
54.9744
54.9718
54.9693
54.9667
54.9641
54.9615
54.959
54.9564
54.9538
54.9513
54.9487
54.9461
54.9435
54.941
54.9384
54.9358
54.9333
54.9307
54.9281
54.9256
54.923
54.9204
54.9179
54.9153
54.9127
54.9102
54.9076
54.9051
54.9025
54.8999
54.8974
54.8948
54.8922
54.8897
54.8871
54.8846
54.882
54.8794
54.8769
54.8743
54.8718
54.8692
54.8666
54.8641
54.8615
54.859
54.8564
54.8539
54.8513
54.8487
54.8462
54.8436
54.8411
54.8385
54.836
54.8334
54.8309
54.8283
54.8258
54.8232
54.8207
54.8181
54.8155
54.813
54.8104
54.8079
54.8053
54.8028
54.8003
54.7977
54.7952
54.7926
54.7901
54.7875
54.785
54.7824
54.7799
54.7773
54.7748
54.7722
54.7697
54.7671
54.7646
54.7621
54.7595
54.757
54.7544
54.7519
54.7494
54.7468
54.7443
54.7417
54.7392
54.7366
54.7341
54.7316
54.729
54.7265
54.724
54.7214
54.7189
54.7163
54.7138
54.7113
54.7087
54.7062
54.7037
54.7011
54.6986
54.6961
54.6935
54.691
54.6885
54.6859
54.6834
54.6809
54.6783
54.6758
54.6733
54.6707
54.6682
54.6657
54.6632
54.6606
54.6581
54.6556
54.653
54.6505
54.648
54.6455
54.6429
54.6404
54.6379
54.6354
54.6328
54.6303
54.6278
54.6253
54.6227
54.6202
54.6177
54.6152
54.6127
54.6101
54.6076
54.6051
54.6026
54.6001
54.5975
54.595
54.5925
54.59
54.5875
54.5849
54.5824
54.5799
54.5774
54.5749
54.5724
54.5698
54.5673
54.5648
54.5623
54.5598
54.5573
54.5548
54.5522
54.5497
54.5472
54.5447
54.5422
54.5397
54.5372
54.5347
54.5322
54.5296
54.5271
54.5246
54.5221
54.5196
54.5171
54.5146
54.5121
54.5096
54.5071
54.5046
54.5021
54.4996
54.4971
54.4945
54.492
54.4895
54.487
54.4845
54.482
54.4795
54.477
54.4745
54.472
54.4695
54.467
54.4645
54.462
54.4595
54.457
54.4545
54.452
54.4495
54.447
54.4445
54.442
54.4395
54.437
54.4345
54.4321
54.4296
54.4271
54.4246
54.4221
54.4196
54.4171
54.4146
54.4121
54.4096
54.4071
54.4046
54.4021
54.3996
54.3972
54.3947
54.3922
54.3897
54.3872
54.3847
54.3822
54.3797
54.3772
54.3748
54.3723
54.3698
54.3673
54.3648
54.3623
54.3598
54.3574
54.3549
54.3524
54.3499
54.3474
54.3449
54.3425
54.34
54.3375
54.335
54.3325
54.33
54.3276
54.3251
54.3226
54.3201
54.3176
54.3152
54.3127
54.3102
54.3077
54.3053
54.3028
54.3003
54.2978
54.2954
54.2929
54.2904
54.2879
54.2855
54.283
54.2805
54.278
54.2756
54.2731
54.2706
54.2681
54.2657
54.2632
54.2607
54.2583
54.2558
54.2533
54.2509
54.2484
54.2459
54.2435
54.241
54.2385
54.2361
54.2336
54.2311
54.2287
54.2262
54.2237
54.2213
54.2188
54.2163
54.2139
54.2114
54.2089
54.2065
54.204
54.2016
54.1991
54.1966
54.1942
54.1917
54.1892
54.1868
54.1843
54.1819
54.1794
54.177
54.1745
54.172
54.1696
54.1671
54.1647
54.1622
54.1598
54.1573
54.1548
54.1524
54.1499
54.1475
54.145
54.1426
54.1401
54.1377
54.1352
54.1328
54.1303
54.1279
54.1254
54.123
54.1205
54.1181
54.1156
54.1132
54.1107
54.1083
54.1058
54.1034
54.1009
54.0985
54.096
54.0936
54.0911
54.0887
54.0863
54.0838
54.0814
54.0789
54.0765
54.074
54.0716
54.0691
54.0667
54.0643
54.0618
54.0594
54.0569
54.0545
54.0521
54.0496
54.0472
54.0447
54.0423
54.0399
54.0374
54.035
54.0326
54.0301
54.0277
54.0252
54.0228
54.0204
54.0179
54.0155
54.0131
54.0106
54.0082
54.0058
54.0033
54.0009
53.9985
53.996
53.9936
53.9912
53.9888
53.9863
53.9839
53.9815
53.979
53.9766
53.9742
53.9717
53.9693
53.9669
53.9645
53.962
53.9596
53.9572
53.9548
53.9523
53.9499
53.9475
53.9451
53.9426
53.9402
53.9378
53.9354
53.9329
53.9305
53.9281
53.9257
53.9233
53.9208
53.9184
53.916
53.9136
53.9112
53.9087
53.9063
53.9039
53.9015
53.8991
53.8967
53.8942
53.8918
53.8894
53.887
53.8846
53.8822
53.8797
53.8773
53.8749
53.8725
53.8701
53.8677
53.8653
53.8629
53.8604
53.858
53.8556
53.8532
53.8508
53.8484
53.846
53.8436
53.8412
53.8388
53.8363
53.8339
53.8315
53.8291
53.8267
53.8243
53.8219
53.8195
53.8171
53.8147
53.8123
53.8099
53.8075
53.8051
53.8027
53.8003
53.7979
53.7955
53.7931
53.7907
53.7883
53.7859
53.7835
53.7811
53.7787
53.7763
53.7739
53.7715
53.7691
53.7667
53.7643
53.7619
53.7595
53.7571
53.7547
53.7523
53.7499
53.7475
53.7451
53.7427
53.7403
53.7379
53.7355
53.7331
53.7307
53.7284
53.726
53.7236
53.7212
53.7188
53.7164
53.714
53.7116
53.7092
53.7068
53.7045
53.7021
53.6997
53.6973
53.6949
53.6925
53.6901
53.6877
53.6854
53.683
53.6806
53.6782
53.6758
53.6734
53.6711
53.6687
53.6663
53.6639
53.6615
53.6591
53.6568
53.6544
53.652
53.6496
53.6472
53.6449
53.6425
53.6401
53.6377
53.6353
53.633
53.6306
53.6282
53.6258
53.6235
53.6211
53.6187
53.6163
53.614
53.6116
53.6092
53.6068
53.6045
53.6021
53.5997
53.5973
53.595
53.5926
53.5902
53.5879
53.5855
53.5831
53.5807
53.5784
53.576
53.5736
53.5713
53.5689
53.5665
53.5642
53.5618
53.5594
53.5571
53.5547
53.5523
53.55
53.5476
53.5452
53.5429
53.5405
53.5381
53.5358
53.5334
53.5311
53.5287
53.5263
53.524
53.5216
53.5192
53.5169
53.5145
53.5122
53.5098
53.5074
53.5051
53.5027
53.5004
53.498
53.4957
53.4933
53.4909
53.4886
53.4862
53.4839
53.4815
53.4792
53.4768
53.4745
53.4721
53.4698
53.4674
53.465
53.4627
53.4603
53.458
53.4556
53.4533
53.4509
53.4486
53.4462
53.4439
53.4415
53.4392
53.4368
53.4345
53.4321
53.4298
53.4275
53.4251
53.4228
53.4204
53.4181
53.4157
53.4134
53.411
53.4087
53.4063
53.404
53.4017
53.3993
53.397
53.3946
53.3923
53.3899
53.3876
53.3853
53.3829
53.3806
53.3782
53.3759
53.3736
53.3712
53.3689
53.3666
53.3642
53.3619
53.3595
53.3572
53.3549
53.3525
53.3502
53.3479
53.3455
53.3432
53.3409
53.3385
53.3362
53.3339
53.3315
53.3292
53.3269
53.3245
53.3222
53.3199
53.3175
53.3152
53.3129
53.3105
53.3082
53.3059
53.3036
53.3012
53.2989
53.2966
53.2943
53.2919
53.2896
53.2873
53.2849
53.2826
53.2803
53.278
53.2756
53.2733
53.271
53.2687
53.2664
53.264
53.2617
53.2594
53.2571
53.2547
53.2524
53.2501
53.2478
53.2455
53.2431
53.2408
53.2385
53.2362
53.2339
53.2316
53.2292
53.2269
53.2246
53.2223
53.22
53.2177
53.2153
53.213
53.2107
53.2084
53.2061
53.2038
53.2015
53.1991
53.1968
53.1945
53.1922
53.1899
53.1876
53.1853
53.183
53.1807
53.1784
53.176
53.1737
53.1714
53.1691
53.1668
53.1645
53.1622
53.1599
53.1576
53.1553
53.153
53.1507
53.1484
53.1461
53.1438
53.1414
53.1391
53.1368
53.1345
53.1322
53.1299
53.1276
53.1253
53.123
53.1207
53.1184
53.1161
53.1138
53.1115
53.1092
53.1069
53.1046
53.1023
53.1
53.0977
53.0954
53.0931
53.0908
53.0886
53.0863
53.084
53.0817
53.0794
53.0771
53.0748
53.0725
53.0702
53.0679
53.0656
53.0633
53.061
53.0587
53.0564
53.0542
53.0519
53.0496
53.0473
53.045
53.0427
53.0404
53.0381
53.0358
53.0336
53.0313
53.029
53.0267
53.0244
53.0221
53.0198
53.0176
53.0153
53.013
53.0107
53.0084
53.0061
53.0039
53.0016
52.9993
52.997
52.9947
52.9924
52.9902
52.9879
52.9856
52.9833
52.981
52.9788
52.9765
52.9742
52.9719
52.9697
52.9674
52.9651
52.9628
52.9605
52.9583
52.956
52.9537
52.9514
52.9492
52.9469
52.9446
52.9423
52.9401
52.9378
52.9355
52.9333
52.931
52.9287
52.9264
52.9242
52.9219
52.9196
52.9174
52.9151
52.9128
52.9106
52.9083
52.906
52.9037
52.9015
52.8992
52.8969
52.8947
52.8924
52.8901
52.8879
52.8856
52.8834
52.8811
52.8788
52.8766
52.8743
52.872
52.8698
52.8675
52.8653
52.863
52.8607
52.8585
52.8562
52.8539
52.8517
52.8494
52.8472
52.8449
52.8427
52.8404
52.8381
52.8359
52.8336
52.8314
52.8291
52.8269
52.8246
52.8223
52.8201
52.8178
52.8156
52.8133
52.8111
52.8088
52.8066
52.8043
52.8021
52.7998
52.7976
52.7953
52.7931
52.7908
52.7886
52.7863
52.7841
52.7818
52.7796
52.7773
52.7751
52.7728
52.7706
52.7683
52.7661
52.7638
52.7616
52.7593
52.7571
52.7548
52.7526
52.7504
52.7481
52.7459
52.7436
52.7414
52.7391
52.7369
52.7347
52.7324
52.7302
52.7279
52.7257
52.7235
52.7212
52.719
52.7167
52.7145
52.7123
52.71
52.7078
52.7056
52.7033
52.7011
52.6988
52.6966
52.6944
52.6921
52.6899
52.6877
52.6854
52.6832
52.681
52.6787
52.6765
52.6743
52.672
52.6698
52.6676
52.6653
52.6631
52.6609
52.6587
52.6564
52.6542
52.652
52.6497
52.6475
52.6453
52.643
52.6408
52.6386
52.6364
52.6341
52.6319
52.6297
52.6275
52.6252
52.623
52.6208
52.6186
52.6163
52.6141
52.6119
52.6097
52.6075
52.6052
52.603
52.6008
52.5986
52.5964
52.5941
52.5919
52.5897
52.5875
52.5853
52.583
52.5808
52.5786
52.5764
52.5742
52.5719
52.5697
52.5675
52.5653
52.5631
52.5609
52.5587
52.5564
52.5542
52.552
52.5498
52.5476
52.5454
52.5432
52.541
52.5387
52.5365
52.5343
52.5321
52.5299
52.5277
52.5255
52.5233
52.5211
52.5189
52.5166
52.5144
52.5122
52.51
52.5078
52.5056
52.5034
52.5012
52.499
52.4968
52.4946
52.4924
52.4902
52.488
52.4858
52.4836
52.4814
52.4792
52.477
52.4748
52.4726
52.4704
52.4682
52.466
52.4638
52.4616
52.4594
52.4572
52.455
52.4528
52.4506
52.4484
52.4462
52.444
52.4418
52.4396
52.4374
52.4352
52.433
52.4308
52.4286
52.4264
52.4242
52.422
52.4198
52.4176
52.4155
52.4133
52.4111
52.4089
52.4067
52.4045
52.4023
52.4001
52.3979
52.3957
52.3935
52.3914
52.3892
52.387
52.3848
52.3826
52.3804
52.3782
52.376
52.3739
52.3717
52.3695
52.3673
52.3651
52.3629
52.3608
52.3586
52.3564
52.3542
52.352
52.3498
52.3477
52.3455
52.3433
52.3411
52.3389
52.3368
52.3346
52.3324
52.3302
52.328
52.3259
52.3237
52.3215
52.3193
52.3172
52.315
52.3128
52.3106
52.3085
52.3063
52.3041
52.3019
52.2998
52.2976
52.2954
52.2932
52.2911
52.2889
52.2867
52.2845
52.2824
52.2802
52.278
52.2759
52.2737
52.2715
52.2693
52.2672
52.265
52.2628
52.2607
52.2585
52.2563
52.2542
52.252
52.2498
52.2477
52.2455
52.2433
52.2412
52.239
52.2369
52.2347
52.2325
52.2304
52.2282
52.226
52.2239
52.2217
52.2195
52.2174
52.2152
52.2131
52.2109
52.2087
52.2066
52.2044
52.2023
52.2001
52.198
52.1958
52.1936
52.1915
52.1893
52.1872
52.185
52.1829
52.1807
52.1785
52.1764
52.1742
52.1721
52.1699
52.1678
52.1656
52.1635
52.1613
52.1592
52.157
52.1549
52.1527
52.1506
52.1484
52.1463
52.1441
52.142
52.1398
52.1377
52.1355
52.1334
52.1312
52.1291
52.1269
52.1248
52.1226
52.1205
52.1183
52.1162
52.114
52.1119
52.1098
52.1076
52.1055
52.1033
52.1012
52.099
52.0969
52.0948
52.0926
52.0905
52.0883
52.0862
52.0841
52.0819
52.0798
52.0776
52.0755
52.0734
52.0712
52.0691
52.0669
52.0648
52.0627
52.0605
52.0584
52.0563
52.0541
52.052
52.0499
52.0477
52.0456
52.0435
52.0413
52.0392
52.0371
52.0349
52.0328
52.0307
52.0285
52.0264
52.0243
52.0221
52.02
52.0179
52.0157
52.0136
52.0115
52.0094
52.0072
52.0051
52.003
52.0009
51.9987
51.9966
51.9945
51.9923
51.9902
51.9881
51.986
51.9838
51.9817
51.9796
51.9775
51.9754
51.9732
51.9711
51.969
51.9669
51.9647
51.9626
51.9605
51.9584
51.9563
51.9541
51.952
51.9499
51.9478
51.9457
51.9435
51.9414
51.9393
51.9372