# vtk DataFile Version 2.0
vtk output
ASCII
DATASET STRUCTURED_GRID
DIMENSIONS 50 10 30
POINTS 15000 float
0 0 0
1 0 0
2 0 0
3 0 0
4 0 0
5 0 0
6 0 0
7 0 0
8 0 0
9 0 0
10 0 0
11 0 0
12 0 0
13 0 0
14 0 0
15 0 0
16 0 0
17 0 0
18 0 0
19 0 0
20 0 0
21 0 0
22 0 0
23 0 0
24 0 0
25 0 0
26 0 0
27 0 0
28 0 0
29 0 0
30 0 0
31 0 0
32 0 0
33 0 0
34 0 0
35 0 0
36 0 0
37 0 0
38 0 0
39 0 0
40 0 0
41 0 0
42 0 0
43 0 0
44 0 0
45 0 0
46 0 0
47 0 0
48 0 0
49 0 0
0 1 0
1 1 0
2 1 0
3 1 0
4 1 0
5 1 0
6 1 0
7 1 0
8 1 0
9 1 0
10 1 0
11 1 0
12 1 0
13 1 0
14 1 0
15 1 0
16 1 0
17 1 0
18 1 0
19 1 0
20 1 0
21 1 0
22 1 0
23 1 0
24 1 0
25 1 0
26 1 0
27 1 0
28 1 0
29 1 0
30 1 0
31 1 0
32 1 0
33 1 0
34 1 0
35 1 0
36 1 0
37 1 0
38 1 0
39 1 0
40 1 0
41 1 0
42 1 0
43 1 0
44 1 0
45 1 0
46 1 0
47 1 0
48 1 0
49 1 0
0 2 0
1 2 0
2 2 0
3 2 0
4 2 0
5 2 0
6 2 0
7 2 0
8 2 0
9 2 0
10 2 0
11 2 0
12 2 0
13 2 0
14 2 0
15 2 0
16 2 0
17 2 0
18 2 0
19 2 0
20 2 0
21 2 0
22 2 0
23 2 0
24 2 0
25 2 0
26 2 0
27 2 0
28 2 0
29 2 0
30 2 0
31 2 0
32 2 0
33 2 0
34 2 0
35 2 0
36 2 0
37 2 0
38 2 0
39 2 0
40 2 0
41 2 0
42 2 0
43 2 0
44 2 0
45 2 0
46 2 0
47 2 0
48 2 0
49 2 0
0 3 0
1 3 0
2 3 0
3 3 0
4 3 0
5 3 0
6 3 0
7 3 0
8 3 0
9 3 0
10 3 0
11 3 0
12 3 0
13 3 0
14 3 0
15 3 0
16 3 0
17 3 0
18 3 0
19 3 0
20 3 0
21 3 0
22 3 0
23 3 0
24 3 0
25 3 0
26 3 0
27 3 0
28 3 0
29 3 0
30 3 0
31 3 0
32 3 0
33 3 0
34 3 0
35 3 0
36 3 0
37 3 0
38 3 0
39 3 0
40 3 0
41 3 0
42 3 0
43 3 0
44 3 0
45 3 0
46 3 0
47 3 0
48 3 0
49 3 0
0 4 0
1 4 0
2 4 0
3 4 0
4 4 0
5 4 0
6 4 0
7 4 0
8 4 0
9 4 0
10 4 0
11 4 0
12 4 0
13 4 0
14 4 0
15 4 0
16 4 0
17 4 0
18 4 0
19 4 0
20 4 0
21 4 0
22 4 0
23 4 0
24 4 0
25 4 0
26 4 0
27 4 0
28 4 0
29 4 0
30 4 0
31 4 0
32 4 0
33 4 0
34 4 0
35 4 0
36 4 0
37 4 0
38 4 0
39 4 0
40 4 0
41 4 0
42 4 0
43 4 0
44 4 0
45 4 0
46 4 0
47 4 0
48 4 0
49 4 0
0 5 0
1 5 0
2 5 0
3 5 0
4 5 0
5 5 0
6 5 0
7 5 0
8 5 0
9 5 0
10 5 0
11 5 0
12 5 0
13 5 0
14 5 0
15 5 0
16 5 0
17 5 0
18 5 0
19 5 0
20 5 0
21 5 0
22 5 0
23 5 0
24 5 0
25 5 0
26 5 0
27 5 0
28 5 0
29 5 0
30 5 0
31 5 0
32 5 0
33 5 0
34 5 0
35 5 0
36 5 0
37 5 0
38 5 0
39 5 0
40 5 0
41 5 0
42 5 0
43 5 0
44 5 0
45 5 0
46 5 0
47 5 0
48 5 0
49 5 0
0 6 0
1 6 0
2 6 0
3 6 0
4 6 0
5 6 0
6 6 0
7 6 0
8 6 0
9 6 0
10 6 0
11 6 0
12 6 0
13 6 0
14 6 0
15 6 0
16 6 0
17 6 0
18 6 0
19 6 0
20 6 0
21 6 0
22 6 0
23 6 0
24 6 0
25 6 0
26 6 0
27 6 0
28 6 0
29 6 0
30 6 0
31 6 0
32 6 0
33 6 0
34 6 0
35 6 0
36 6 0
37 6 0
38 6 0
39 6 0
40 6 0
41 6 0
42 6 0
43 6 0
44 6 0
45 6 0
46 6 0
47 6 0
48 6 0
49 6 0
0 7 0
1 7 0
2 7 0
3 7 0
4 7 0
5 7 0
6 7 0
7 7 0
8 7 0
9 7 0
10 7 0
11 7 0
12 7 0
13 7 0
14 7 0
15 7 0
16 7 0
17 7 0
18 7 0
19 7 0
20 7 0
21 7 0
22 7 0
23 7 0
24 7 0
25 7 0
26 7 0
27 7 0
28 7 0
29 7 0
30 7 0
31 7 0
32 7 0
33 7 0
34 7 0
35 7 0
36 7 0
37 7 0
38 7 0
39 7 0
40 7 0
41 7 0
42 7 0
43 7 0
44 7 0
45 7 0
46 7 0
47 7 0
48 7 0
49 7 0
0 8 0
1 8 0
2 8 0
3 8 0
4 8 0
5 8 0
6 8 0
7 8 0
8 8 0
9 8 0
10 8 0
11 8 0
12 8 0
13 8 0
14 8 0
15 8 0
16 8 0
17 8 0
18 8 0
19 8 0
20 8 0
21 8 0
22 8 0
23 8 0
24 8 0
25 8 0
26 8 0
27 8 0
28 8 0
29 8 0
30 8 0
31 8 0
32 8 0
33 8 0
34 8 0
35 8 0
36 8 0
37 8 0
38 8 0
39 8 0
40 8 0
41 8 0
42 8 0
43 8 0
44 8 0
45 8 0
46 8 0
47 8 0
48 8 0
49 8 0
0 9 0
1 9 0
2 9 0
3 9 0
4 9 0
5 9 0
6 9 0
7 9 0
8 9 0
9 9 0
10 9 0
11 9 0
12 9 0
13 9 0
14 9 0
15 9 0
16 9 0
17 9 0
18 9 0
19 9 0
20 9 0
21 9 0
22 9 0
23 9 0
24 9 0
25 9 0
26 9 0
27 9 0
28 9 0
29 9 0
30 9 0
31 9 0
32 9 0
33 9 0
34 9 0
35 9 0
36 9 0
37 9 0
38 9 0
39 9 0
40 9 0
41 9 0
42 9 0
43 9 0
44 9 0
45 9 0
46 9 0
47 9 0
48 9 0
49 9 0
0 0 1
1 0 1
2 0 1
3 0 1
4 0 1
5 0 1
6 0 1
7 0 1
8 0 1
9 0 1
10 0 1
11 0 1
12 0 1
13 0 1
14 0 1
15 0 1
16 0 1
17 0 1
18 0 1
19 0 1
20 0 1
21 0 1
22 0 1
23 0 1
24 0 1
25 0 1
26 0 1
27 0 1
28 0 1
29 0 1
30 0 1
31 0 1
32 0 1
33 0 1
34 0 1
35 0 1
36 0 1
37 0 1
38 0 1
39 0 1
40 0 1
41 0 1
42 0 1
43 0 1
44 0 1
45 0 1
46 0 1
47 0 1
48 0 1
49 0 1
0 1 1
1 1 1
2 1 1
3 1 1
4 1 1
5 1 1
6 1 1
7 1 1
8 1 1
9 1 1
10 1 1
11 1 1
12 1 1
13 1 1
14 1 1
15 1 1
16 1 1
17 1 1
18 1 1
19 1 1
20 1 1
21 1 1
22 1 1
23 1 1
24 1 1
25 1 1
26 1 1
27 1 1
28 1 1
29 1 1
30 1 1
31 1 1
32 1 1
33 1 1
34 1 1
35 1 1
36 1 1
37 1 1
38 1 1
39 1 1
40 1 1
41 1 1
42 1 1
43 1 1
44 1 1
45 1 1
46 1 1
47 1 1
48 1 1
49 1 1
0 2 1
1 2 1
2 2 1
3 2 1
4 2 1
5 2 1
6 2 1
7 2 1
8 2 1
9 2 1
10 2 1
11 2 1
12 2 1
13 2 1
14 2 1
15 2 1
16 2 1
17 2 1
18 2 1
19 2 1
20 2 1
21 2 1
22 2 1
23 2 1
24 2 1
25 2 1
26 2 1
27 2 1
28 2 1
29 2 1
30 2 1
31 2 1
32 2 1
33 2 1
34 2 1
35 2 1
36 2 1
37 2 1
38 2 1
39 2 1
40 2 1
41 2 1
42 2 1
43 2 1
44 2 1
45 2 1
46 2 1
47 2 1
48 2 1
49 2 1
0 3 1
1 3 1
2 3 1
3 3 1
4 3 1
5 3 1
6 3 1
7 3 1
8 3 1
9 3 1
10 3 1
11 3 1
12 3 1
13 3 1
14 3 1
15 3 1
16 3 1
17 3 1
18 3 1
19 3 1
20 3 1
21 3 1
22 3 1
23 3 1
24 3 1
25 3 1
26 3 1
27 3 1
28 3 1
29 3 1
30 3 1
31 3 1
32 3 1
33 3 1
34 3 1
35 3 1
36 3 1
37 3 1
38 3 1
39 3 1
40 3 1
41 3 1
42 3 1
43 3 1
44 3 1
45 3 1
46 3 1
47 3 1
48 3 1
49 3 1
0 4 1
1 4 1
2 4 1
3 4 1
4 4 1
5 4 1
6 4 1
7 4 1
8 4 1
9 4 1
10 4 1
11 4 1
12 4 1
13 4 1
14 4 1
15 4 1
16 4 1
17 4 1
18 4 1
19 4 1
20 4 1
21 4 1
22 4 1
23 4 1
24 4 1
25 4 1
26 4 1
27 4 1
28 4 1
29 4 1
30 4 1
31 4 1
32 4 1
33 4 1
34 4 1
35 4 1
36 4 1
37 4 1
38 4 1
39 4 1
40 4 1
41 4 1
42 4 1
43 4 1
44 4 1
45 4 1
46 4 1
47 4 1
48 4 1
49 4 1
0 5 1
1 5 1
2 5 1
3 5 1
4 5 1
5 5 1
6 5 1
7 5 1
8 5 1
9 5 1
10 5 1
11 5 1
12 5 1
13 5 1
14 5 1
15 5 1
16 5 1
17 5 1
18 5 1
19 5 1
20 5 1
21 5 1
22 5 1
23 5 1
24 5 1
25 5 1
26 5 1
27 5 1
28 5 1
29 5 1
30 5 1
31 5 1
32 5 1
33 5 1
34 5 1
35 5 1
36 5 1
37 5 1
38 5 1
39 5 1
40 5 1
41 5 1
42 5 1
43 5 1
44 5 1
45 5 1
46 5 1
47 5 1
48 5 1
49 5 1
0 6 1
1 6 1
2 6 1
3 6 1
4 6 1
5 6 1
6 6 1
7 6 1
8 6 1
9 6 1
10 6 1
11 6 1
12 6 1
13 6 1
14 6 1
15 6 1
16 6 1
17 6 1
18 6 1
19 6 1
20 6 1
21 6 1
22 6 1
23 6 1
24 6 1
25 6 1
26 6 1
27 6 1
28 6 1
29 6 1
30 6 1
31 6 1
32 6 1
33 6 1
34 6 1
35 6 1
36 6 1
37 6 1
38 6 1
39 6 1
40 6 1
41 6 1
42 6 1
43 6 1
44 6 1
45 6 1
46 6 1
47 6 1
48 6 1
49 6 1
0 7 1
1 7 1
2 7 1
3 7 1
4 7 1
5 7 1
6 7 1
7 7 1
8 7 1
9 7 1
10 7 1
11 7 1
12 7 1
13 7 1
14 7 1
15 7 1
16 7 1
17 7 1
18 7 1
19 7 1
20 7 1
21 7 1
22 7 1
23 7 1
24 7 1
25 7 1
26 7 1
27 7 1
28 7 1
29 7 1
30 7 1
31 7 1
32 7 1
33 7 1
34 7 1
35 7 1
36 7 1
37 7 1
38 7 1
39 7 1
40 7 1
41 7 1
42 7 1
43 7 1
44 7 1
45 7 1
46 7 1
47 7 1
48 7 1
49 7 1
0 8 1
1 8 1
2 8 1
3 8 1
4 8 1
5 8 1
6 8 1
7 8 1
8 8 1
9 8 1
10 8 1
11 8 1
12 8 1
13 8 1
14 8 1
15 8 1
16 8 1
17 8 1
18 8 1
19 8 1
20 8 1
21 8 1
22 8 1
23 8 1
24 8 1
25 8 1
26 8 1
27 8 1
28 8 1
29 8 1
30 8 1
31 8 1
32 8 1
33 8 1
34 8 1
35 8 1
36 8 1
37 8 1
38 8 1
39 8 1
40 8 1
41 8 1
42 8 1
43 8 1
44 8 1
45 8 1
46 8 1
47 8 1
48 8 1
49 8 1
0 9 1
1 9 1
2 9 1
3 9 1
4 9 1
5 9 1
6 9 1
7 9 1
8 9 1
9 9 1
10 9 1
11 9 1
12 9 1
13 9 1
14 9 1
15 9 1
16 9 1
17 9 1
18 9 1
19 9 1
20 9 1
21 9 1
22 9 1
23 9 1
24 9 1
25 9 1
26 9 1
27 9 1
28 9 1
29 9 1
30 9 1
31 9 1
32 9 1
33 9 1
34 9 1
35 9 1
36 9 1
37 9 1
38 9 1
39 9 1
40 9 1
41 9 1
42 9 1
43 9 1
44 9 1
45 9 1
46 9 1
47 9 1
48 9 1
49 9 1
0 0 2
1 0 2
2 0 2
3 0 2
4 0 2
5 0 2
6 0 2
7 0 2
8 0 2
9 0 2
10 0 2
11 0 2
12 0 2
13 0 2
14 0 2
15 0 2
16 0 2
17 0 2
18 0 2
19 0 2
20 0 2
21 0 2
22 0 2
23 0 2
24 0 2
25 0 2
26 0 2
27 0 2
28 0 2
29 0 2
30 0 2
31 0 2
32 0 2
33 0 2
34 0 2
35 0 2
36 0 2
37 0 2
38 0 2
39 0 2
40 0 2
41 0 2
42 0 2
43 0 2
44 0 2
45 0 2
46 0 2
47 0 2
48 0 2
49 0 2
0 1 2
1 1 2
2 1 2
3 1 2
4 1 2
5 1 2
6 1 2
7 1 2
8 1 2
9 1 2
10 1 2
11 1 2
12 1 2
13 1 2
14 1 2
15 1 2
16 1 2
17 1 2
18 1 2
19 1 2
20 1 2
21 1 2
22 1 2
23 1 2
24 1 2
25 1 2
26 1 2
27 1 2
28 1 2
29 1 2
30 1 2
31 1 2
32 1 2
33 1 2
34 1 2
35 1 2
36 1 2
37 1 2
38 1 2
39 1 2
40 1 2
41 1 2
42 1 2
43 1 2
44 1 2
45 1 2
46 1 2
47 1 2
48 1 2
49 1 2
0 2 2
1 2 2
2 2 2
3 2 2
4 2 2
5 2 2
6 2 2
7 2 2
8 2 2
9 2 2
10 2 2
11 2 2
12 2 2
13 2 2
14 2 2
15 2 2
16 2 2
17 2 2
18 2 2
19 2 2
20 2 2
21 2 2
22 2 2
23 2 2
24 2 2
25 2 2
26 2 2
27 2 2
28 2 2
29 2 2
30 2 2
31 2 2
32 2 2
33 2 2
34 2 2
35 2 2
36 2 2
37 2 2
38 2 2
39 2 2
40 2 2
41 2 2
42 2 2
43 2 2
44 2 2
45 2 2
46 2 2
47 2 2
48 2 2
49 2 2
0 3 2
1 3 2
2 3 2
3 3 2
4 3 2
5 3 2
6 3 2
7 3 2
8 3 2
9 3 2
10 3 2
11 3 2
12 3 2
13 3 2
14 3 2
15 3 2
16 3 2
17 3 2
18 3 2
19 3 2
20 3 2
21 3 2
22 3 2
23 3 2
24 3 2
25 3 2
26 3 2
27 3 2
28 3 2
29 3 2
30 3 2
31 3 2
32 3 2
33 3 2
34 3 2
35 3 2
36 3 2
37 3 2
38 3 2
39 3 2
40 3 2
41 3 2
42 3 2
43 3 2
44 3 2
45 3 2
46 3 2
47 3 2
48 3 2
49 3 2
0 4 2
1 4 2
2 4 2
3 4 2
4 4 2
5 4 2
6 4 2
7 4 2
8 4 2
9 4 2
10 4 2
11 4 2
12 4 2
13 4 2
14 4 2
15 4 2
16 4 2
17 4 2
18 4 2
19 4 2
20 4 2
21 4 2
22 4 2
23 4 2
24 4 2
25 4 2
26 4 2
27 4 2
28 4 2
29 4 2
30 4 2
31 4 2
32 4 2
33 4 2
34 4 2
35 4 2
36 4 2
37 4 2
38 4 2
39 4 2
40 4 2
41 4 2
42 4 2
43 4 2
44 4 2
45 4 2
46 4 2
47 4 2
48 4 2
49 4 2
0 5 2
1 5 2
2 5 2
3 5 2
4 5 2
5 5 2
6 5 2
7 5 2
8 5 2
9 5 2
10 5 2
11 5 2
12 5 2
13 5 2
14 5 2
15 5 2
16 5 2
17 5 2
18 5 2
19 5 2
20 5 2
21 5 2
22 5 2
23 5 2
24 5 2
25 5 2
26 5 2
27 5 2
28 5 2
29 5 2
30 5 2
31 5 2
32 5 2
33 5 2
34 5 2
35 5 2
36 5 2
37 5 2
38 5 2
39 5 2
40 5 2
41 5 2
42 5 2
43 5 2
44 5 2
45 5 2
46 5 2
47 5 2
48 5 2
49 5 2
0 6 2
1 6 2
2 6 2
3 6 2
4 6 2
5 6 2
6 6 2
7 6 2
8 6 2
9 6 2
10 6 2
11 6 2
12 6 2
13 6 2
14 6 2
15 6 2
16 6 2
17 6 2
18 6 2
19 6 2
20 6 2
21 6 2
22 6 2
23 6 2
24 6 2
25 6 2
26 6 2
27 6 2
28 6 2
29 6 2
30 6 2
31 6 2
32 6 2
33 6 2
34 6 2
35 6 2
36 6 2
37 6 2
38 6 2
39 6 2
40 6 2
41 6 2
42 6 2
43 6 2
44 6 2
45 6 2
46 6 2
47 6 2
48 6 2
49 6 2
0 7 2
1 7 2
2 7 2
3 7 2
4 7 2
5 7 2
6 7 2
7 7 2
8 7 2
9 7 2
10 7 2
11 7 2
12 7 2
13 7 2
14 7 2
15 7 2
16 7 2
17 7 2
18 7 2
19 7 2
20 7 2
21 7 2
22 7 2
23 7 2
24 7 2
25 7 2
26 7 2
27 7 2
28 7 2
29 7 2
30 7 2
31 7 2
32 7 2
33 7 2
34 7 2
35 7 2
36 7 2
37 7 2
38 7 2
39 7 2
40 7 2
41 7 2
42 7 2
43 7 2
44 7 2
45 7 2
46 7 2
47 7 2
48 7 2
49 7 2
0 8 2
1 8 2
2 8 2
3 8 2
4 8 2
5 8 2
6 8 2
7 8 2
8 8 2
9 8 2
10 8 2
11 8 2
12 8 2
13 8 2
14 8 2
15 8 2
16 8 2
17 8 2
18 8 2
19 8 2
20 8 2
21 8 2
22 8 2
23 8 2
24 8 2
25 8 2
26 8 2
27 8 2
28 8 2
29 8 2
30 8 2
31 8 2
32 8 2
33 8 2
34 8 2
35 8 2
36 8 2
37 8 2
38 8 2
39 8 2
40 8 2
41 8 2
42 8 2
43 8 2
44 8 2
45 8 2
46 8 2
47 8 2
48 8 2
49 8 2
0 9 2
1 9 2
2 9 2
3 9 2
4 9 2
[...]
POINT_DATA 15000
SCALARS sol289 float
LOOKUP_TABLE default
58.3885
58.3854
58.3824
58.3793
58.3763
58.3732
58.3702
58.3671
58.3641
58.361
58.358
58.3549
58.3519
58.3489
58.3458
58.3428
58.3397
58.3367
58.3336
58.3306
58.3276
58.3245
58.3215
58.3184
58.3154
58.3124
58.3093
58.3063
58.3032
58.3002
58.2972
58.2941
58.2911
58.2881
58.285
58.282
58.279
58.2759
58.2729
58.2699
58.2668
58.2638
58.2608
58.2577
58.2547
58.2517
58.2486
58.2456
58.2426
58.2395
58.2365
58.2335
58.2305
58.2274
58.2244
58.2214
58.2183
58.2153
58.2123
58.2093
58.2062
58.2032
58.2002
58.1972
58.1941
58.1911
58.1881
58.1851
58.1821
58.179
58.176
58.173
58.17
58.167
58.1639
58.1609
58.1579
58.1549
58.1519
58.1488
58.1458
58.1428
58.1398
58.1368
58.1338
58.1308
58.1277
58.1247
58.1217
58.1187
58.1157
58.1127
58.1097
58.1066
58.1036
58.1006
58.0976
58.0946
58.0916
58.0886
58.0856
58.0826
58.0796
58.0766
58.0735
58.0705
58.0675
58.0645
58.0615
58.0585
58.0555
58.0525
58.0495
58.0465
58.0435
58.0405
58.0375
58.0345
58.0315
58.0285
58.0255
58.0225
58.0195
58.0165
58.0135
58.0105
58.0075
58.0045
58.0015
57.9985
57.9955
57.9925
57.9895
57.9865
57.9835
57.9805
57.9775
57.9745
57.9715
57.9685
57.9656
57.9626
57.9596
57.9566
57.9536
57.9506
57.9476
57.9446
57.9416
57.9386
57.9356
57.9327
57.9297
57.9267
57.9237
57.9207
57.9177
57.9147
57.9118
57.9088
57.9058
57.9028
57.8998
57.8968
57.8938
57.8909
57.8879
57.8849
57.8819
57.8789
57.876
57.873
57.87
57.867
57.864
57.8611
57.8581
57.8551
57.8521
57.8491
57.8462
57.8432
57.8402
57.8372
57.8343
57.8313
57.8283
57.8253
57.8224
57.8194
57.8164
57.8135
57.8105
57.8075
57.8045
57.8016
57.7986
57.7956
57.7927
57.7897
57.7867
57.7838
57.7808
57.7778
57.7748
57.7719
57.7689
57.7659
57.763
57.76
57.7571
57.7541
57.7511
57.7482
57.7452
57.7422
57.7393
57.7363
57.7334
57.7304
57.7274
57.7245
57.7215
57.7185
57.7156
57.7126
57.7097
57.7067
57.7038
57.7008
57.6978
57.6949
57.6919
57.689
57.686
57.6831
57.6801
57.6772
57.6742
57.6712
57.6683
57.6653
57.6624
57.6594
57.6565
57.6535
57.6506
57.6476
57.6447
57.6417
57.6388
57.6358
57.6329
57.6299
57.627
57.6241
57.6211
57.6182
57.6152
57.6123
57.6093
57.6064
57.6034
57.6005
57.5975
57.5946
57.5917
57.5887
57.5858
57.5828
57.5799
57.577
57.574
57.5711
57.5681
57.5652
57.5623
57.5593
57.5564
57.5534
57.5505
57.5476
57.5446
57.5417
57.5388
57.5358
57.5329
57.53
57.527
57.5241
57.5212
57.5182
57.5153
57.5124
57.5094
57.5065
57.5036
57.5006
57.4977
57.4948
57.4919
57.4889
57.486
57.4831
57.4801
57.4772
57.4743
57.4714
57.4684
57.4655
57.4626
57.4597
57.4567
57.4538
57.4509
57.448
57.445
57.4421
57.4392
57.4363
57.4334
57.4304
57.4275
57.4246
57.4217
57.4188
57.4158
57.4129
57.41
57.4071
57.4042
57.4012
57.3983
57.3954
57.3925
57.3896
57.3867
57.3838
57.3808
57.3779
57.375
57.3721
57.3692
57.3663
57.3634
57.3605
57.3575
57.3546
57.3517
57.3488
57.3459
57.343
57.3401
57.3372
57.3343
57.3314
57.3285
57.3255
57.3226
57.3197
57.3168
57.3139
57.311
57.3081
57.3052
57.3023
57.2994
57.2965
57.2936
57.2907
57.2878
57.2849
57.282
57.2791
57.2762
57.2733
57.2704
57.2675
57.2646
57.2617
57.2588
57.2559
57.253
57.2501
57.2472
57.2443
57.2414
57.2385
57.2356
57.2327
57.2299
57.227
57.2241
57.2212
57.2183
57.2154
57.2125
57.2096
57.2067
57.2038
57.2009
57.198
57.1952
57.1923
57.1894
57.1865
57.1836
57.1807
57.1778
57.1749
57.1721
57.1692
57.1663
57.1634
57.1605
57.1576
57.1548
57.1519
57.149
57.1461
57.1432
57.1403
57.1375
57.1346
57.1317
57.1288
57.1259
57.1231
57.1202
57.1173
57.1144
57.1116
57.1087
57.1058
57.1029
57.1
57.0972
57.0943
57.0914
57.0885
57.0857
57.0828
57.0799
57.0771
57.0742
57.0713
57.0684
57.0656
57.0627
57.0598
57.057
57.0541
57.0512
57.0483
57.0455
57.0426
57.0397
57.0369
57.034
57.0311
57.0283
57.0254
57.0225
57.0197
57.0168
57.014
57.0111
57.0082
57.0054
57.0025
56.9996
56.9968
56.9939
56.9911
56.9882
56.9853
56.9825
56.9796
56.9768
56.9739
56.971
56.9682
56.9653
56.9625
56.9596
56.9568
56.9539
56.951
56.9482
56.9453
56.9425
56.9396
56.9368
56.9339
56.9311
56.9282
56.9254
56.9225
56.9197
56.9168
56.914
56.9111
56.9083
56.9054
56.9026
56.8997
56.8969
56.894
56.8912
56.8883
56.8855
56.8826
56.8798
56.8769
56.8741
56.8712
56.8684
56.8656
56.8627
56.8599
56.857
56.8542
56.8513
56.8485
56.8457
56.8428
56.84
56.8371
56.8343
56.8315
56.8286
56.8258
56.8229
56.8201
56.8173
56.8144
56.8116
56.8088
56.8059
56.8031
56.8003
56.7974
56.7946
56.7917
56.7889
56.7861
56.7833
56.7804
56.7776
56.7748
56.7719
56.7691
56.7663
56.7634
56.7606
56.7578
56.7549
56.7521
56.7493
56.7465
56.7436
56.7408
56.738
56.7352
56.7323
56.7295
56.7267
56.7239
56.721
56.7182
56.7154
56.7126
56.7097
56.7069
56.7041
56.7013
56.6985
56.6956
56.6928
56.69
56.6872
56.6844
56.6815
56.6787
56.6759
56.6731
56.6703
56.6674
56.6646
56.6618
56.659
56.6562
56.6534
56.6506
56.6477
56.6449
56.6421
56.6393
56.6365
56.6337
56.6309
56.6281
56.6252
56.6224
56.6196
56.6168
56.614
56.6112
56.6084
56.6056
56.6028
56.6
56.5972
56.5943
56.5915
56.5887
56.5859
56.5831
56.5803
56.5775
56.5747
56.5719
56.5691
56.5663
56.5635
56.5607
56.5579
56.5551
56.5523
56.5495
56.5467
56.5439
56.5411
56.5383
56.5355
56.5327
56.5299
56.5271
56.5243
56.5215
56.5187
56.5159
56.5131
56.5103
56.5075
56.5047
56.5019
56.4992
56.4964
56.4936
56.4908
56.488
56.4852
56.4824
56.4796
56.4768
56.474
56.4712
56.4684
56.4657
56.4629
56.4601
56.4573
56.4545
56.4517
56.4489
56.4461
56.4434
56.4406
56.4378
56.435
56.4322
56.4294
56.4267
56.4239
56.4211
56.4183
56.4155
56.4127
56.41
56.4072
56.4044
56.4016
56.3988
56.3961
56.3933
56.3905
56.3877
56.3849
56.3822
56.3794
56.3766
56.3738
56.3711
56.3683
56.3655
56.3627
56.36
56.3572
56.3544
56.3516
56.3489
56.3461
56.3433
56.3406
56.3378
56.335
56.3322
56.3295
56.3267
56.3239
56.3212
56.3184
56.3156
56.3129
56.3101
56.3073
56.3046
56.3018
56.299
56.2963
56.2935
56.2907
56.288
56.2852
56.2824
56.2797
56.2769
56.2741
56.2714
56.2686
56.2659
56.2631
56.2603
56.2576
56.2548
56.2521
56.2493
56.2465
56.2438
56.241
56.2383
56.2355
56.2328
56.23
56.2272
56.2245
56.2217
56.219
56.2162
56.2135
56.2107
56.208
56.2052
56.2025
56.1997
56.197
56.1942
56.1915
56.1887
56.186
56.1832
56.1805
56.1777
56.175
56.1722
56.1695
56.1667
56.164
56.1612
56.1585
56.1557
56.153
56.1502
56.1475
56.1447
56.142
56.1393
56.1365
56.1338
56.131
56.1283
56.1255
56.1228
56.1201
56.1173
56.1146
56.1118
56.1091
56.1064
56.1036
56.1009
56.0981
56.0954
56.0927
56.0899
56.0872
56.0845
56.0817
56.079
56.0763
56.0735
56.0708
56.0681
56.0653
56.0626
56.0599
56.0571
56.0544
56.0517
56.0489
56.0462
56.0435
56.0407
56.038
56.0353
56.0325
56.0298
56.0271
56.0244
56.0216
56.0189
56.0162
56.0135
56.0107
56.008
56.0053
56.0026
55.9998
55.9971
55.9944
55.9917
55.9889
55.9862
55.9835
55.9808
55.9781
55.9753
55.9726
55.9699
55.9672
55.9645
55.9617
55.959
55.9563
55.9536
55.9509
55.9481
55.9454
55.9427
55.94
55.9373
55.9346
55.9318
55.9291
55.9264
55.9237
55.921
55.9183
55.9156
55.9129
55.9101
55.9074
55.9047
55.902
55.8993
55.8966
55.8939
55.8912
55.8885
55.8858
55.883
55.8803
55.8776
55.8749
55.8722
55.8695
55.8668
55.8641
55.8614
55.8587
55.856
55.8533
55.8506
55.8479
55.8452
55.8425
55.8398
55.8371
55.8344
55.8317
55.829
55.8263
55.8236
55.8209
55.8182
55.8155
55.8128
55.8101
55.8074
55.8047
55.802
55.7993
55.7966
55.7939
55.7912
55.7885
55.7858
55.7831
55.7804
55.7777
55.775
55.7723
55.7697
55.767
55.7643
55.7616
55.7589
55.7562
55.7535
55.7508
55.7481
55.7454
55.7428
55.7401
55.7374
55.7347
55.732
55.7293
55.7266
55.7239
55.7213
55.7186
55.7159
55.7132
55.7105
55.7078
55.7052
55.7025
55.6998
55.6971
55.6944
55.6917
55.6891
55.6864
55.6837
55.681
55.6783
55.6757
55.673
55.6703
55.6676
55.665
55.6623
55.6596
55.6569
55.6542
55.6516
55.6489
55.6462
55.6435
55.6409
55.6382
55.6355
55.6329
55.6302
55.6275
55.6248
55.6222
55.6195
55.6168
55.6142
55.6115
55.6088
55.6061
55.6035
55.6008
55.5981
55.5955
55.5928
55.5901
55.5875
55.5848
55.5821
55.5795
55.5768
55.5741
55.5715
55.5688
55.5662
55.5635
55.5608
55.5582
55.5555
55.5528
55.5502
55.5475
55.5449
55.5422
55.5395
55.5369
55.5342
55.5316
55.5289
55.5262
55.5236
55.5209
55.5183
55.5156
55.513
55.5103
55.5077
55.505
55.5023
55.4997
55.497
55.4944
55.4917
55.4891
55.4864
55.4838
55.4811
55.4785
55.4758
55.4732
55.4705
55.4679
55.4652
55.4626
55.4599
55.4573
55.4546
55.452
55.4493
55.4467
55.444
55.4414
55.4387
55.4361
55.4335
55.4308
55.4282
55.4255
55.4229
55.4202
55.4176
55.415
55.4123
55.4097
55.407
55.4044
55.4018
55.3991
55.3965
55.3938
55.3912
55.3886
55.3859
55.3833
55.3806
55.378
55.3754
55.3727
55.3701
55.3675
55.3648
55.3622
55.3596
55.3569
55.3543
55.3517
55.349
55.3464
55.3438
55.3411
55.3385
55.3359
55.3332
55.3306
55.328
55.3253
55.3227
55.3201
55.3175
55.3148
55.3122
55.3096
55.307
55.3043
55.3017
55.2991
55.2964
55.2938
55.2912
55.2886
55.286
55.2833
55.2807
55.2781
55.2755
55.2728
55.2702
55.2676
55.265
55.2624
55.2597
55.2571
55.2545
55.2519
55.2493
55.2466
55.244
55.2414
55.2388
55.2362
55.2336
55.2309
55.2283
55.2257
55.2231
55.2205
55.2179
55.2152
55.2126
55.21
55.2074
55.2048
55.2022
55.1996
55.197
55.1944
55.1917
55.1891
55.1865
55.1839
55.1813
55.1787
55.1761
55.1735
55.1709
55.1683
55.1657
55.163
55.1604
55.1578
55.1552
55.1526
55.15
55.1474
55.1448
55.1422
55.1396
55.137
55.1344
55.1318
55.1292
55.1266
55.124
55.1214
55.1188
55.1162
55.1136
55.111
55.1084
55.1058
55.1032
55.1006
55.098
55.0954
55.0928
55.0902
55.0876
55.085
55.0824
55.0798
55.0772
55.0747
55.0721
55.0695
55.0669
55.0643
55.0617
55.0591
55.0565
55.0539
55.0513
55.0487
55.0461
55.0436
55.041
55.0384
55.0358
55.0332
55.0306
55.028
55.0254
55.0229
55.0203
55.0177
55.0151
55.0125
55.0099
55.0073
55.0048
55.0022
54.9996
54.997
54.9944
54.9918
54.9893
54.9867
54.9841
54.9815
54.9789
54.9764
54.9738
54.9712
54.9686
54.966
54.9635
54.9609
54.9583
54.9557
54.9532
54.9506
54.948
54.9454
54.9429
54.9403
54.9377
54.9351
54.9326
54.93
54.9274
54.9248
54.9223
54.9197
54.9171
54.9146
54.912
54.9094
54.9069
54.9043
54.9017
54.8991
54.8966
54.894
54.8914
54.8889
54.8863
54.8837
54.8812
54.8786
54.876
54.8735
54.8709
54.8683
54.8658
54.8632
54.8607
54.8581
54.8555
54.853
54.8504
54.8478
54.8453
54.8427
54.8402
54.8376
54.835
54.8325
54.8299
54.8274
54.8248
54.8223
54.8197
54.8171
54.8146
54.812
54.8095
54.8069
54.8044
54.8018
54.7993
54.7967
54.7941
54.7916
54.789
54.7865
54.7839
54.7814
54.7788
54.7763
54.7737
54.7712
54.7686
54.7661
54.7635
54.761
54.7584
54.7559
54.7533
54.7508
54.7482
54.7457
54.7432
54.7406
54.7381
54.7355
54.733
54.7304
54.7279
54.7253
54.7228
54.7203
54.7177
54.7152
54.7126
54.7101
54.7075
54.705
54.7025
54.6999
54.6974
54.6948
54.6923
54.6898
54.6872
54.6847
54.6822
54.6796
54.6771
54.6745
54.672
54.6695
54.6669
54.6644
54.6619
54.6593
54.6568
54.6543
54.6517
54.6492
54.6467
54.6441
54.6416
54.6391
54.6365
54.634
54.6315
54.629
54.6264
54.6239
54.6214
54.6188
54.6163
54.6138
54.6113
54.6087
54.6062
54.6037
54.6011
54.5986
54.5961
54.5936
54.591
54.5885
54.586
54.5835
54.581
54.5784
54.5759
54.5734
54.5709
54.5683
54.5658
54.5633
54.5608
54.5583
54.5557
54.5532
54.5507
54.5482
54.5457
54.5432
54.5406
54.5381
54.5356
54.5331
54.5306
54.5281
54.5255
54.523
54.5205
54.518
54.5155
54.513
54.5105
54.508
54.5054
54.5029
54.5004
54.4979
54.4954
54.4929
54.4904
54.4879
54.4854
54.4829
54.4803
54.4778
54.4753
54.4728
54.4703
54.4678
54.4653
54.4628
54.4603
54.4578
54.4553
54.4528
54.4503
54.4478
54.4453
54.4428
54.4403
54.4378
54.4353
54.4328
54.4303
54.4278
54.4253
54.4228
54.4203
54.4178
54.4153
54.4128
54.4103
54.4078
54.4053
54.4028
54.4003
54.3978
54.3953
54.3928
54.3903
54.3878
54.3853
54.3828
54.3803
54.3778
54.3753
54.3728
54.3703
54.3678
54.3654
54.3629
54.3604
54.3579
54.3554
54.3529
54.3504
54.3479
54.3454
54.343
54.3405
54.338
54.3355
54.333
54.3305
54.328
54.3255
54.3231
54.3206
54.3181
54.3156
54.3131
54.3106
54.3082
54.3057
54.3032
54.3007
54.2982
54.2957
54.2933
54.2908
54.2883
54.2858
54.2833
54.2809
54.2784
54.2759
54.2734
54.2709
54.2685
54.266
54.2635
54.261
54.2586
54.2561
54.2536
54.2511
54.2487
54.2462
54.2437
54.2412
54.2388
54.2363
54.2338
54.2314
54.2289
54.2264
54.2239
54.2215
54.219
54.2165
54.2141
54.2116
54.2091
54.2067
54.2042
54.2017
54.1993
54.1968
54.1943
54.1919
54.1894
54.1869
54.1845
54.182
54.1795
54.1771
54.1746
54.1721
54.1697
54.1672
54.1647
54.1623
54.1598
54.1574
54.1549
54.1524
54.15
54.1475
54.1451
54.1426
54.1401
54.1377
54.1352
54.1328
54.1303
54.1279
54.1254
54.1229
54.1205
54.118
54.1156
54.1131
54.1107
54.1082
54.1058
54.1033
54.1009
54.0984
54.096
54.0935
54.0911
54.0886
54.0861
54.0837
54.0812
54.0788
54.0763
54.0739
54.0715
54.069
54.0666
54.0641
54.0617
54.0592
54.0568
54.0543
54.0519
54.0494
54.047
54.0445
54.0421
54.0397
54.0372
54.0348
54.0323
54.0299
54.0274
54.025
54.0226
54.0201
54.0177
54.0152
54.0128
54.0104
54.0079
54.0055
54.003
54.0006
53.9982
53.9957
53.9933
53.9909
53.9884
53.986
53.9835
53.9811
53.9787
53.9762
53.9738
53.9714
53.9689
53.9665
53.9641
53.9616
53.9592
53.9568
53.9543
53.9519
53.9495
53.9471
53.9446
53.9422
53.9398
53.9373
53.9349
53.9325
53.9301
53.9276
53.9252
53.9228
53.9203
53.9179
53.9155
53.9131
53.9106
53.9082
53.9058
53.9034
53.9009
53.8985
53.8961
53.8937
53.8913
53.8888
53.8864
53.884
53.8816
53.8792
53.8767
53.8743
53.8719
53.8695
53.8671
53.8646
53.8622
53.8598
53.8574
53.855
53.8526
53.8501
53.8477
53.8453
53.8429
53.8405
53.8381
53.8357
53.8332
53.8308
53.8284
53.826
53.8236
53.8212
53.8188
53.8164
53.8139
53.8115
53.8091
53.8067
53.8043
53.8019
53.7995
53.7971
53.7947
53.7923
53.7899
53.7875
53.785
53.7826
53.7802
53.7778
53.7754
53.773
53.7706
53.7682
53.7658
53.7634
53.761
53.7586
53.7562
53.7538
53.7514
53.749
53.7466
53.7442
53.7418
53.7394
53.737
53.7346
53.7322
53.7298
53.7274
53.725
53.7226
53.7202
53.7178
53.7154
53.713
53.7106
53.7082
53.7058
53.7034
53.7011
53.6987
53.6963
53.6939
53.6915
53.6891
53.6867
53.6843
53.6819
53.6795
53.6771
53.6747
53.6724
53.67
53.6676
53.6652
53.6628
53.6604
53.658
53.6556
53.6533
53.6509
53.6485
53.6461
53.6437
53.6413
53.6389
53.6366
53.6342
53.6318
53.6294
53.627
53.6246
53.6223
53.6199
53.6175
53.6151
53.6127
53.6104
53.608
53.6056
53.6032
53.6008
53.5985
53.5961
53.5937
53.5913
53.5889
53.5866
53.5842
53.5818
53.5794
53.5771
53.5747
53.5723
53.5699
53.5676
53.5652
53.5628
53.5604
53.5581
53.5557
53.5533
53.551
53.5486
53.5462
53.5438
53.5415
53.5391
53.5367
53.5344
53.532
53.5296
53.5273
53.5249
53.5225
53.5202
53.5178
53.5154
53.5131
53.5107
53.5083
53.506
53.5036
53.5012
53.4989
53.4965
53.4942
53.4918
53.4894
53.4871
53.4847
53.4823
53.48
53.4776
53.4753
53.4729
53.4705
53.4682
53.4658
53.4635
53.4611
53.4587
53.4564
53.454
53.4517
53.4493
53.447
53.4446
53.4423
53.4399
53.4375
53.4352
53.4328
53.4305
53.4281
53.4258
53.4234
53.4211
53.4187
53.4164
53.414
53.4117
53.4093
53.407
53.4046
53.4023
53.3999
53.3976
53.3952
53.3929
53.3905
53.3882
53.3858
53.3835
53.3811
53.3788
53.3765
53.3741
53.3718
53.3694
53.3671
53.3647
53.3624
53.36
53.3577
53.3554
53.353
53.3507
53.3483
53.346
53.3437
53.3413
53.339
53.3366
53.3343
53.332
53.3296
53.3273
53.3249
53.3226
53.3203
53.3179
53.3156
53.3133
53.3109
53.3086
53.3063
53.3039
53.3016
53.2993
53.2969
53.2946
53.2923
53.2899
53.2876
53.2853
53.2829
53.2806
53.2783
53.2759
53.2736
53.2713
53.269
53.2666
53.2643
53.262
53.2596
53.2573
53.255
53.2527
53.2503
53.248
53.2457
53.2434
53.241
53.2387
53.2364
53.2341
53.2317
53.2294
53.2271
53.2248
53.2224
53.2201
53.2178
53.2155
53.2132
53.2108
53.2085
53.2062
53.2039
53.2016
53.1992
53.1969
53.1946
53.1923
53.19
53.1877
53.1853
53.183
53.1807
53.1784
53.1761
53.1738
53.1714
53.1691
53.1668
53.1645
53.1622
53.1599
53.1576
53.1553
53.1529
53.1506
53.1483
53.146
53.1437
53.1414
53.1391
53.1368
53.1345
53.1322
53.1299
53.1275
53.1252
53.1229
53.1206
53.1183
53.116
53.1137
53.1114
53.1091
53.1068
53.1045
53.1022
53.0999
53.0976
53.0953
53.093
53.0907
53.0884
53.0861
53.0838
53.0815
53.0792
53.0769
53.0746
53.0723
53.07
53.0677
53.0654
53.0631
53.0608
53.0585
53.0562
53.0539
53.0516
53.0493
53.047
53.0447
53.0424
53.0401
53.0378
53.0355
53.0332
53.0309
53.0286
53.0263
53.0241
53.0218
53.0195
53.0172
53.0149
53.0126
53.0103
53.008
53.0057
53.0034
53.0012
52.9989
52.9966
52.9943
52.992
52.9897
52.9874
52.9851
52.9829
52.9806
52.9783
52.976
52.9737
52.9714
52.9692
52.9669
52.9646
52.9623
52.96
52.9577
52.9555
52.9532
52.9509
52.9486
52.9463
52.9441
52.9418
52.9395
52.9372
52.9349
52.9327
52.9304
52.9281
52.9258
52.9236
52.9213
52.919
52.9167
52.9145
52.9122
52.9099
52.9076
52.9054
52.9031
52.9008
52.8985
52.8963
52.894
52.8917
52.8894
52.8872
52.8849
52.8826
52.8804
52.8781
52.8758
52.8736
52.8713
52.869
52.8668
52.8645
52.8622
52.8599
52.8577
52.8554
52.8531
52.8509
52.8486
52.8464
52.8441
52.8418
52.8396
52.8373
52.835
52.8328
52.8305
52.8282
52.826
52.8237
52.8215
52.8192
52.8169
52.8147
52.8124
52.8102
52.8079
52.8056
52.8034
52.8011
52.7989
52.7966
52.7944
52.7921
52.7898
52.7876
52.7853
52.7831
52.7808
52.7786
52.7763
52.7741
52.7718
52.7696
52.7673
52.765
52.7628
52.7605
52.7583
52.756
52.7538
52.7515
52.7493
52.747
52.7448
52.7425
52.7403
52.738
52.7358
52.7336
52.7313
52.7291
52.7268
52.7246
52.7223
52.7201
52.7178
52.7156
52.7133
52.7111
52.7089
52.7066
52.7044
52.7021
52.6999
52.6976
52.6954
52.6932
52.6909
52.6887
52.6864
52.6842
52.682
52.6797
52.6775
52.6752
52.673
52.6708
52.6685
52.6663
52.664
52.6618
52.6596
52.6573
52.6551
52.6529
52.6506
52.6484
52.6462
52.6439
52.6417
52.6395
52.6372
52.635
52.6328
52.6305
52.6283
52.6261
52.6238
52.6216
52.6194
52.6172
52.6149
52.6127
52.6105
52.6082
52.606
52.6038
52.6016
52.5993
52.5971
52.5949
52.5927
52.5904
52.5882
52.586
52.5838
52.5815
52.5793
52.5771
52.5749
52.5726
52.5704
52.5682
52.566
52.5637
52.5615
52.5593
52.5571
52.5549
52.5526
52.5504
52.5482
52.546
52.5438
52.5416
52.5393
52.5371
52.5349
52.5327
52.5305
52.5283
52.526
52.5238
52.5216
52.5194
52.5172
52.515
52.5128
52.5105
52.5083
52.5061
52.5039
52.5017
52.4995
52.4973
52.4951
52.4928
52.4906
52.4884
52.4862
52.484
52.4818
52.4796
52.4774
52.4752
52.473
52.4708
52.4686
52.4663
52.4641
52.4619
52.4597
52.4575
52.4553
52.4531
52.4509
52.4487
52.4465
52.4443
52.4421
52.4399
52.4377
52.4355
52.4333
52.4311
52.4289
52.4267
52.4245
52.4223
52.4201
52.4179
52.4157
52.4135
52.4113
52.4091
52.4069
52.4047
52.4025
52.4003
52.3981
52.3959
52.3937
52.3915
52.3893
52.3871
52.385
52.3828
52.3806
52.3784
52.3762
52.374
52.3718
52.3696
52.3674
52.3652
52.363
52.3608
52.3587
52.3565
52.3543
52.3521
52.3499
52.3477
52.3455
52.3433
52.3412
52.339
52.3368
52.3346
52.3324
52.3302
52.328
52.3259
52.3237
52.3215
52.3193
52.3171
52.3149
52.3128
52.3106
52.3084
52.3062
52.304
52.3019
52.2997
52.2975
52.2953
52.2931
52.291
52.2888
52.2866
52.2844
52.2822
52.2801
52.2779
52.2757
52.2735
52.2714
52.2692
52.267
52.2648
52.2627
52.2605
52.2583
52.2561
52.254
52.2518
52.2496
52.2474
52.2453
52.2431
52.2409
52.2388
52.2366
52.2344
52.2323
52.2301
52.2279
52.2257
52.2236
52.2214
52.2192
52.2171
52.2149
52.2127
52.2106
52.2084
52.2062
52.2041
52.2019
52.1997
52.1976
52.1954
52.1933
52.1911
52.1889
52.1868
52.1846
52.1824
52.1803
52.1781
52.176
52.1738
52.1716
52.1695
52.1673
52.1652
52.163
52.1608
52.1587
52.1565
52.1544
52.1522
52.1501
52.1479
52.1457
52.1436
52.1414
52.1393
52.1371
52.135
52.1328
52.1307
52.1285
52.1264
52.1242
52.122
52.1199
52.1177
52.1156
52.1134
52.1113
52.1091
52.107
52.1048
52.1027
52.1005
52.0984
52.0962
52.0941
52.092
52.0898
52.0877
52.0855
52.0834
52.0812
52.0791
52.0769
52.0748
52.0726
52.0705
52.0683
52.0662
52.0641
52.0619
52.0598
52.0576
52.0555
52.0534
52.0512
52.0491
52.0469
52.0448
52.0426
52.0405
52.0384
52.0362
52.0341
52.032
52.0298
52.0277
52.0255
52.0234
52.0213
52.0191
52.017
52.0149
52.0127
52.0106
52.0085
52.0063
52.0042
52.0021
51.9999
51.9978
51.9957
51.9935
51.9914
51.9893
51.9871
51.985
51.9829
51.9807
51.9786
51.9765
51.9744
51.9722
51.9701
51.968
51.9658
51.9637
51.9616
51.9595
51.9573
51.9552
51.9531
51.951
51.9488
51.9467
51.9446
51.9425
51.9403
51.9382
51.9361
51.934
51.9318
51.9297
51.9276
51.9255
51.9234
51.9212
51.9191
51.917
51.9149
51.9128
51.9106
51.9085
51.9064
51.9043