# vtk DataFile Version 2.0
vtk output
ASCII
DATASET STRUCTURED_GRID
DIMENSIONS 50 10 30
POINTS 15000 float
0 0 0
1 0 0
2 0 0
3 0 0
4 0 0
5 0 0
6 0 0
7 0 0
8 0 0
9 0 0
10 0 0
11 0 0
12 0 0
13 0 0
14 0 0
15 0 0
16 0 0
17 0 0
18 0 0
19 0 0
20 0 0
21 0 0
22 0 0
23 0 0
24 0 0
25 0 0
26 0 0
27 0 0
28 0 0
29 0 0
30 0 0
31 0 0
32 0 0
33 0 0
34 0 0
35 0 0
36 0 0
37 0 0
38 0 0
39 0 0
40 0 0
41 0 0
42 0 0
43 0 0
44 0 0
45 0 0
46 0 0
47 0 0
48 0 0
49 0 0
0 1 0
1 1 0
2 1 0
3 1 0
4 1 0
5 1 0
6 1 0
7 1 0
8 1 0
9 1 0
10 1 0
11 1 0
12 1 0
13 1 0
14 1 0
15 1 0
16 1 0
17 1 0
18 1 0
19 1 0
20 1 0
21 1 0
22 1 0
23 1 0
24 1 0
25 1 0
26 1 0
27 1 0
28 1 0
29 1 0
30 1 0
31 1 0
32 1 0
33 1 0
34 1 0
35 1 0
36 1 0
37 1 0
38 1 0
39 1 0
40 1 0
41 1 0
42 1 0
43 1 0
44 1 0
45 1 0
46 1 0
47 1 0
48 1 0
49 1 0
0 2 0
1 2 0
2 2 0
3 2 0
4 2 0
5 2 0
6 2 0
7 2 0
8 2 0
9 2 0
10 2 0
11 2 0
12 2 0
13 2 0
14 2 0
15 2 0
16 2 0
17 2 0
18 2 0
19 2 0
20 2 0
21 2 0
22 2 0
23 2 0
24 2 0
25 2 0
26 2 0
27 2 0
28 2 0
29 2 0
30 2 0
31 2 0
32 2 0
33 2 0
34 2 0
35 2 0
36 2 0
37 2 0
38 2 0
39 2 0
40 2 0
41 2 0
42 2 0
43 2 0
44 2 0
45 2 0
46 2 0
47 2 0
48 2 0
49 2 0
0 3 0
1 3 0
2 3 0
3 3 0
4 3 0
5 3 0
6 3 0
7 3 0
8 3 0
9 3 0
10 3 0
11 3 0
12 3 0
13 3 0
14 3 0
15 3 0
16 3 0
17 3 0
18 3 0
19 3 0
20 3 0
21 3 0
22 3 0
23 3 0
24 3 0
25 3 0
26 3 0
27 3 0
28 3 0
29 3 0
30 3 0
31 3 0
32 3 0
33 3 0
34 3 0
35 3 0
36 3 0
37 3 0
38 3 0
39 3 0
40 3 0
41 3 0
42 3 0
43 3 0
44 3 0
45 3 0
46 3 0
47 3 0
48 3 0
49 3 0
0 4 0
1 4 0
2 4 0
3 4 0
4 4 0
5 4 0
6 4 0
7 4 0
8 4 0
9 4 0
10 4 0
11 4 0
12 4 0
13 4 0
14 4 0
15 4 0
16 4 0
17 4 0
18 4 0
19 4 0
20 4 0
21 4 0
22 4 0
23 4 0
24 4 0
25 4 0
26 4 0
27 4 0
28 4 0
29 4 0
30 4 0
31 4 0
32 4 0
33 4 0
34 4 0
35 4 0
36 4 0
37 4 0
38 4 0
39 4 0
40 4 0
41 4 0
42 4 0
43 4 0
44 4 0
45 4 0
46 4 0
47 4 0
48 4 0
49 4 0
0 5 0
1 5 0
2 5 0
3 5 0
4 5 0
5 5 0
6 5 0
7 5 0
8 5 0
9 5 0
10 5 0
11 5 0
12 5 0
13 5 0
14 5 0
15 5 0
16 5 0
17 5 0
18 5 0
19 5 0
20 5 0
21 5 0
22 5 0
23 5 0
24 5 0
25 5 0
26 5 0
27 5 0
28 5 0
29 5 0
30 5 0
31 5 0
32 5 0
33 5 0
34 5 0
35 5 0
36 5 0
37 5 0
38 5 0
39 5 0
40 5 0
41 5 0
42 5 0
43 5 0
44 5 0
45 5 0
46 5 0
47 5 0
48 5 0
49 5 0
0 6 0
1 6 0
2 6 0
3 6 0
4 6 0
5 6 0
6 6 0
7 6 0
8 6 0
9 6 0
10 6 0
11 6 0
12 6 0
13 6 0
14 6 0
15 6 0
16 6 0
17 6 0
18 6 0
19 6 0
20 6 0
21 6 0
22 6 0
23 6 0
24 6 0
25 6 0
26 6 0
27 6 0
28 6 0
29 6 0
30 6 0
31 6 0
32 6 0
33 6 0
34 6 0
35 6 0
36 6 0
37 6 0
38 6 0
39 6 0
40 6 0
41 6 0
42 6 0
43 6 0
44 6 0
45 6 0
46 6 0
47 6 0
48 6 0
49 6 0
0 7 0
1 7 0
2 7 0
3 7 0
4 7 0
5 7 0
6 7 0
7 7 0
8 7 0
9 7 0
10 7 0
11 7 0
12 7 0
13 7 0
14 7 0
15 7 0
16 7 0
17 7 0
18 7 0
19 7 0
20 7 0
21 7 0
22 7 0
23 7 0
24 7 0
25 7 0
26 7 0
27 7 0
28 7 0
29 7 0
30 7 0
31 7 0
32 7 0
33 7 0
34 7 0
35 7 0
36 7 0
37 7 0
38 7 0
39 7 0
40 7 0
41 7 0
42 7 0
43 7 0
44 7 0
45 7 0
46 7 0
47 7 0
48 7 0
49 7 0
0 8 0
1 8 0
2 8 0
3 8 0
4 8 0
5 8 0
6 8 0
7 8 0
8 8 0
9 8 0
10 8 0
11 8 0
12 8 0
13 8 0
14 8 0
15 8 0
16 8 0
17 8 0
18 8 0
19 8 0
20 8 0
21 8 0
22 8 0
23 8 0
24 8 0
25 8 0
26 8 0
27 8 0
28 8 0
29 8 0
30 8 0
31 8 0
32 8 0
33 8 0
34 8 0
35 8 0
36 8 0
37 8 0
38 8 0
39 8 0
40 8 0
41 8 0
42 8 0
43 8 0
44 8 0
45 8 0
46 8 0
47 8 0
48 8 0
49 8 0
0 9 0
1 9 0
2 9 0
3 9 0
4 9 0
5 9 0
6 9 0
7 9 0
8 9 0
9 9 0
10 9 0
11 9 0
12 9 0
13 9 0
14 9 0
15 9 0
16 9 0
17 9 0
18 9 0
19 9 0
20 9 0
21 9 0
22 9 0
23 9 0
24 9 0
25 9 0
26 9 0
27 9 0
28 9 0
29 9 0
30 9 0
31 9 0
32 9 0
33 9 0
34 9 0
35 9 0
36 9 0
37 9 0
38 9 0
39 9 0
40 9 0
41 9 0
42 9 0
43 9 0
44 9 0
45 9 0
46 9 0
47 9 0
48 9 0
49 9 0
0 0 1
1 0 1
2 0 1
3 0 1
4 0 1
5 0 1
6 0 1
7 0 1
8 0 1
9 0 1
10 0 1
11 0 1
12 0 1
13 0 1
14 0 1
15 0 1
16 0 1
17 0 1
18 0 1
19 0 1
20 0 1
21 0 1
22 0 1
23 0 1
24 0 1
25 0 1
26 0 1
27 0 1
28 0 1
29 0 1
30 0 1
31 0 1
32 0 1
33 0 1
34 0 1
35 0 1
36 0 1
37 0 1
38 0 1
39 0 1
40 0 1
41 0 1
42 0 1
43 0 1
44 0 1
45 0 1
46 0 1
47 0 1
48 0 1
49 0 1
0 1 1
1 1 1
2 1 1
3 1 1
4 1 1
5 1 1
6 1 1
7 1 1
8 1 1
9 1 1
10 1 1
11 1 1
12 1 1
13 1 1
14 1 1
15 1 1
16 1 1
17 1 1
18 1 1
19 1 1
20 1 1
21 1 1
22 1 1
23 1 1
24 1 1
25 1 1
26 1 1
27 1 1
28 1 1
29 1 1
30 1 1
31 1 1
32 1 1
33 1 1
34 1 1
35 1 1
36 1 1
37 1 1
38 1 1
39 1 1
40 1 1
41 1 1
42 1 1
43 1 1
44 1 1
45 1 1
46 1 1
47 1 1
48 1 1
49 1 1
0 2 1
1 2 1
2 2 1
3 2 1
4 2 1
5 2 1
6 2 1
7 2 1
8 2 1
9 2 1
10 2 1
11 2 1
12 2 1
13 2 1
14 2 1
15 2 1
16 2 1
17 2 1
18 2 1
19 2 1
20 2 1
21 2 1
22 2 1
23 2 1
24 2 1
25 2 1
26 2 1
27 2 1
28 2 1
29 2 1
30 2 1
31 2 1
32 2 1
33 2 1
34 2 1
35 2 1
36 2 1
37 2 1
38 2 1
39 2 1
40 2 1
41 2 1
42 2 1
43 2 1
44 2 1
45 2 1
46 2 1
47 2 1
48 2 1
49 2 1
0 3 1
1 3 1
2 3 1
3 3 1
4 3 1
5 3 1
6 3 1
7 3 1
8 3 1
9 3 1
10 3 1
11 3 1
12 3 1
13 3 1
14 3 1
15 3 1
16 3 1
17 3 1
18 3 1
19 3 1
20 3 1
21 3 1
22 3 1
23 3 1
24 3 1
25 3 1
26 3 1
27 3 1
28 3 1
29 3 1
30 3 1
31 3 1
32 3 1
33 3 1
34 3 1
35 3 1
36 3 1
37 3 1
38 3 1
39 3 1
40 3 1
41 3 1
42 3 1
43 3 1
44 3 1
45 3 1
46 3 1
47 3 1
48 3 1
49 3 1
0 4 1
1 4 1
2 4 1
3 4 1
4 4 1
5 4 1
6 4 1
7 4 1
8 4 1
9 4 1
10 4 1
11 4 1
12 4 1
13 4 1
14 4 1
15 4 1
16 4 1
17 4 1
18 4 1
19 4 1
20 4 1
21 4 1
22 4 1
23 4 1
24 4 1
25 4 1
26 4 1
27 4 1
28 4 1
29 4 1
30 4 1
31 4 1
32 4 1
33 4 1
34 4 1
35 4 1
36 4 1
37 4 1
38 4 1
39 4 1
40 4 1
41 4 1
42 4 1
43 4 1
44 4 1
45 4 1
46 4 1
47 4 1
48 4 1
49 4 1
0 5 1
1 5 1
2 5 1
3 5 1
4 5 1
5 5 1
6 5 1
7 5 1
8 5 1
9 5 1
10 5 1
11 5 1
12 5 1
13 5 1
14 5 1
15 5 1
16 5 1
17 5 1
18 5 1
19 5 1
20 5 1
21 5 1
22 5 1
23 5 1
24 5 1
25 5 1
26 5 1
27 5 1
28 5 1
29 5 1
30 5 1
31 5 1
32 5 1
33 5 1
34 5 1
35 5 1
36 5 1
37 5 1
38 5 1
39 5 1
40 5 1
41 5 1
42 5 1
43 5 1
44 5 1
45 5 1
46 5 1
47 5 1
48 5 1
49 5 1
0 6 1
1 6 1
2 6 1
3 6 1
4 6 1
5 6 1
6 6 1
7 6 1
8 6 1
9 6 1
10 6 1
11 6 1
12 6 1
13 6 1
14 6 1
15 6 1
16 6 1
17 6 1
18 6 1
19 6 1
20 6 1
21 6 1
22 6 1
23 6 1
24 6 1
25 6 1
26 6 1
27 6 1
28 6 1
29 6 1
30 6 1
31 6 1
32 6 1
33 6 1
34 6 1
35 6 1
36 6 1
37 6 1
38 6 1
39 6 1
40 6 1
41 6 1
42 6 1
43 6 1
44 6 1
45 6 1
46 6 1
47 6 1
48 6 1
49 6 1
0 7 1
1 7 1
2 7 1
3 7 1
4 7 1
5 7 1
6 7 1
7 7 1
8 7 1
9 7 1
10 7 1
11 7 1
12 7 1
13 7 1
14 7 1
15 7 1
16 7 1
17 7 1
18 7 1
19 7 1
20 7 1
21 7 1
22 7 1
23 7 1
24 7 1
25 7 1
26 7 1
27 7 1
28 7 1
29 7 1
30 7 1
31 7 1
32 7 1
33 7 1
34 7 1
35 7 1
36 7 1
37 7 1
38 7 1
39 7 1
40 7 1
41 7 1
42 7 1
43 7 1
44 7 1
45 7 1
46 7 1
47 7 1
48 7 1
49 7 1
0 8 1
1 8 1
2 8 1
3 8 1
4 8 1
5 8 1
6 8 1
7 8 1
8 8 1
9 8 1
10 8 1
11 8 1
12 8 1
13 8 1
14 8 1
15 8 1
16 8 1
17 8 1
18 8 1
19 8 1
20 8 1
21 8 1
22 8 1
23 8 1
24 8 1
25 8 1
26 8 1
27 8 1
28 8 1
29 8 1
30 8 1
31 8 1
32 8 1
33 8 1
34 8 1
35 8 1
36 8 1
37 8 1
38 8 1
39 8 1
40 8 1
41 8 1
42 8 1
43 8 1
44 8 1
45 8 1
46 8 1
47 8 1
48 8 1
49 8 1
0 9 1
1 9 1
2 9 1
3 9 1
4 9 1
5 9 1
6 9 1
7 9 1
8 9 1
9 9 1
10 9 1
11 9 1
12 9 1
13 9 1
14 9 1
15 9 1
16 9 1
17 9 1
18 9 1
19 9 1
20 9 1
21 9 1
22 9 1
23 9 1
24 9 1
25 9 1
26 9 1
27 9 1
28 9 1
29 9 1
30 9 1
31 9 1
32 9 1
33 9 1
34 9 1
35 9 1
36 9 1
37 9 1
38 9 1
39 9 1
40 9 1
41 9 1
42 9 1
43 9 1
44 9 1
45 9 1
46 9 1
47 9 1
48 9 1
49 9 1
0 0 2
1 0 2
2 0 2
3 0 2
4 0 2
5 0 2
6 0 2
7 0 2
8 0 2
9 0 2
10 0 2
11 0 2
12 0 2
13 0 2
14 0 2
15 0 2
16 0 2
17 0 2
18 0 2
19 0 2
20 0 2
21 0 2
22 0 2
23 0 2
24 0 2
25 0 2
26 0 2
27 0 2
28 0 2
29 0 2
30 0 2
31 0 2
32 0 2
33 0 2
34 0 2
35 0 2
36 0 2
37 0 2
38 0 2
39 0 2
40 0 2
41 0 2
42 0 2
43 0 2
44 0 2
45 0 2
46 0 2
47 0 2
48 0 2
49 0 2
0 1 2
1 1 2
2 1 2
3 1 2
4 1 2
5 1 2
6 1 2
7 1 2
8 1 2
9 1 2
10 1 2
11 1 2
12 1 2
13 1 2
14 1 2
15 1 2
16 1 2
17 1 2
18 1 2
19 1 2
20 1 2
21 1 2
22 1 2
23 1 2
24 1 2
25 1 2
26 1 2
27 1 2
28 1 2
29 1 2
30 1 2
31 1 2
32 1 2
33 1 2
34 1 2
35 1 2
36 1 2
37 1 2
38 1 2
39 1 2
40 1 2
41 1 2
42 1 2
43 1 2
44 1 2
45 1 2
46 1 2
47 1 2
48 1 2
49 1 2
0 2 2
1 2 2
2 2 2
3 2 2
4 2 2
5 2 2
6 2 2
7 2 2
8 2 2
9 2 2
10 2 2
11 2 2
12 2 2
13 2 2
14 2 2
15 2 2
16 2 2
17 2 2
18 2 2
19 2 2
20 2 2
21 2 2
22 2 2
23 2 2
24 2 2
25 2 2
26 2 2
27 2 2
28 2 2
29 2 2
30 2 2
31 2 2
32 2 2
33 2 2
34 2 2
35 2 2
36 2 2
37 2 2
38 2 2
39 2 2
40 2 2
41 2 2
42 2 2
43 2 2
44 2 2
45 2 2
46 2 2
47 2 2
48 2 2
49 2 2
0 3 2
1 3 2
2 3 2
3 3 2
4 3 2
5 3 2
6 3 2
7 3 2
8 3 2
9 3 2
10 3 2
11 3 2
12 3 2
13 3 2
14 3 2
15 3 2
16 3 2
17 3 2
18 3 2
19 3 2
20 3 2
21 3 2
22 3 2
23 3 2
24 3 2
25 3 2
26 3 2
27 3 2
28 3 2
29 3 2
30 3 2
31 3 2
32 3 2
33 3 2
34 3 2
35 3 2
36 3 2
37 3 2
38 3 2
39 3 2
40 3 2
41 3 2
42 3 2
43 3 2
44 3 2
45 3 2
46 3 2
47 3 2
48 3 2
49 3 2
0 4 2
1 4 2
2 4 2
3 4 2
4 4 2
5 4 2
6 4 2
7 4 2
8 4 2
9 4 2
10 4 2
11 4 2
12 4 2
13 4 2
14 4 2
15 4 2
16 4 2
17 4 2
18 4 2
19 4 2
20 4 2
21 4 2
22 4 2
23 4 2
24 4 2
25 4 2
26 4 2
27 4 2
28 4 2
29 4 2
30 4 2
31 4 2
32 4 2
33 4 2
34 4 2
35 4 2
36 4 2
37 4 2
38 4 2
39 4 2
40 4 2
41 4 2
42 4 2
43 4 2
44 4 2
45 4 2
46 4 2
47 4 2
48 4 2
49 4 2
0 5 2
1 5 2
2 5 2
3 5 2
4 5 2
5 5 2
6 5 2
7 5 2
8 5 2
9 5 2
10 5 2
11 5 2
12 5 2
13 5 2
14 5 2
15 5 2
16 5 2
17 5 2
18 5 2
19 5 2
20 5 2
21 5 2
22 5 2
23 5 2
24 5 2
25 5 2
26 5 2
27 5 2
28 5 2
29 5 2
30 5 2
31 5 2
32 5 2
33 5 2
34 5 2
35 5 2
36 5 2
37 5 2
38 5 2
39 5 2
40 5 2
41 5 2
42 5 2
43 5 2
44 5 2
45 5 2
46 5 2
47 5 2
48 5 2
49 5 2
0 6 2
1 6 2
2 6 2
3 6 2
4 6 2
5 6 2
6 6 2
7 6 2
8 6 2
9 6 2
10 6 2
11 6 2
12 6 2
13 6 2
14 6 2
15 6 2
16 6 2
17 6 2
18 6 2
19 6 2
20 6 2
21 6 2
22 6 2
23 6 2
24 6 2
25 6 2
26 6 2
27 6 2
28 6 2
29 6 2
30 6 2
31 6 2
32 6 2
33 6 2
34 6 2
35 6 2
36 6 2
37 6 2
38 6 2
39 6 2
40 6 2
41 6 2
42 6 2
43 6 2
44 6 2
45 6 2
46 6 2
47 6 2
48 6 2
49 6 2
0 7 2
1 7 2
2 7 2
3 7 2
4 7 2
5 7 2
6 7 2
7 7 2
8 7 2
9 7 2
10 7 2
11 7 2
12 7 2
13 7 2
14 7 2
15 7 2
16 7 2
17 7 2
18 7 2
19 7 2
20 7 2
21 7 2
22 7 2
23 7 2
24 7 2
25 7 2
26 7 2
27 7 2
28 7 2
29 7 2
30 7 2
31 7 2
32 7 2
33 7 2
34 7 2
35 7 2
36 7 2
37 7 2
38 7 2
39 7 2
40 7 2
41 7 2
42 7 2
43 7 2
44 7 2
45 7 2
46 7 2
47 7 2
48 7 2
49 7 2
0 8 2
1 8 2
2 8 2
3 8 2
4 8 2
5 8 2
6 8 2
7 8 2
8 8 2
9 8 2
10 8 2
11 8 2
12 8 2
13 8 2
14 8 2
15 8 2
16 8 2
17 8 2
18 8 2
19 8 2
20 8 2
21 8 2
22 8 2
23 8 2
24 8 2
25 8 2
26 8 2
27 8 2
28 8 2
29 8 2
30 8 2
31 8 2
32 8 2
33 8 2
34 8 2
35 8 2
36 8 2
37 8 2
38 8 2
39 8 2
40 8 2
41 8 2
42 8 2
43 8 2
44 8 2
45 8 2
46 8 2
47 8 2
48 8 2
49 8 2
0 9 2
1 9 2
2 9 2
3 9 2
4 9 2
[...]
POINT_DATA 15000
SCALARS sol244 float
LOOKUP_TABLE default
58.2844
58.2813
58.2783
58.2752
58.2722
58.2691
58.2661
58.263
58.26
58.2569
58.2539
58.2508
58.2478
58.2448
58.2417
58.2387
58.2356
58.2326
58.2295
58.2265
58.2235
58.2204
58.2174
58.2143
58.2113
58.2083
58.2052
58.2022
58.1991
58.1961
58.1931
58.19
58.187
58.184
58.1809
58.1779
58.1749
58.1718
58.1688
58.1658
58.1627
58.1597
58.1567
58.1536
58.1506
58.1476
58.1445
58.1415
58.1385
58.1354
58.1324
58.1294
58.1264
58.1233
58.1203
58.1173
58.1142
58.1112
58.1082
58.1052
58.1021
58.0991
58.0961
58.0931
58.09
58.087
58.084
58.081
58.078
58.0749
58.0719
58.0689
58.0659
58.0629
58.0598
58.0568
58.0538
58.0508
58.0478
58.0447
58.0417
58.0387
58.0357
58.0327
58.0297
58.0267
58.0236
58.0206
58.0176
58.0146
58.0116
58.0086
58.0056
58.0025
57.9995
57.9965
57.9935
57.9905
57.9875
57.9845
57.9815
57.9785
57.9755
57.9725
57.9694
57.9664
57.9634
57.9604
57.9574
57.9544
57.9514
57.9484
57.9454
57.9424
57.9394
57.9364
57.9334
57.9304
57.9274
57.9244
57.9214
57.9184
57.9154
57.9124
57.9094
57.9064
57.9034
57.9004
57.8974
57.8944
57.8914
57.8884
57.8854
57.8824
57.8794
57.8764
57.8734
57.8704
57.8674
57.8644
57.8615
57.8585
57.8555
57.8525
57.8495
57.8465
57.8435
57.8405
57.8375
57.8345
57.8315
57.8286
57.8256
57.8226
57.8196
57.8166
57.8136
57.8106
57.8077
57.8047
57.8017
57.7987
57.7957
57.7927
57.7897
57.7868
57.7838
57.7808
57.7778
57.7748
57.7719
57.7689
57.7659
57.7629
57.7599
57.757
57.754
57.751
57.748
57.745
57.7421
57.7391
57.7361
57.7331
57.7302
57.7272
57.7242
57.7212
57.7183
57.7153
57.7123
57.7094
57.7064
57.7034
57.7004
57.6975
57.6945
57.6915
57.6886
57.6856
57.6826
57.6796
57.6767
57.6737
57.6707
57.6678
57.6648
57.6618
57.6589
57.6559
57.653
57.65
57.647
57.6441
57.6411
57.6381
57.6352
57.6322
57.6292
57.6263
57.6233
57.6204
57.6174
57.6144
57.6115
57.6085
57.6056
57.6026
57.5997
57.5967
57.5937
57.5908
57.5878
57.5849
57.5819
57.579
57.576
57.5731
57.5701
57.5671
57.5642
57.5612
57.5583
57.5553
57.5524
57.5494
57.5465
57.5435
57.5406
57.5376
57.5347
57.5317
57.5288
57.5258
57.5229
57.5199
57.517
57.5141
57.5111
57.5082
57.5052
57.5023
57.4993
57.4964
57.4934
57.4905
57.4876
57.4846
57.4817
57.4787
57.4758
57.4729
57.4699
57.467
57.464
57.4611
57.4582
57.4552
57.4523
57.4493
57.4464
57.4435
57.4405
57.4376
57.4347
57.4317
57.4288
57.4259
57.4229
57.42
57.4171
57.4141
57.4112
57.4083
57.4053
57.4024
57.3995
57.3965
57.3936
57.3907
57.3877
57.3848
57.3819
57.379
57.376
57.3731
57.3702
57.3673
57.3643
57.3614
57.3585
57.3556
57.3526
57.3497
57.3468
57.3439
57.3409
57.338
57.3351
57.3322
57.3293
57.3263
57.3234
57.3205
57.3176
57.3147
57.3117
57.3088
57.3059
57.303
57.3001
57.2971
57.2942
57.2913
57.2884
57.2855
57.2826
57.2797
57.2767
57.2738
57.2709
57.268
57.2651
57.2622
57.2593
57.2564
57.2534
57.2505
57.2476
57.2447
57.2418
57.2389
57.236
57.2331
57.2302
57.2273
57.2244
57.2214
57.2185
57.2156
57.2127
57.2098
57.2069
57.204
57.2011
57.1982
57.1953
57.1924
57.1895
57.1866
57.1837
57.1808
57.1779
57.175
57.1721
57.1692
57.1663
57.1634
57.1605
57.1576
57.1547
57.1518
57.1489
57.146
57.1431
57.1402
57.1373
57.1344
57.1315
57.1286
57.1258
57.1229
57.12
57.1171
57.1142
57.1113
57.1084
57.1055
57.1026
57.0997
57.0968
57.0939
57.0911
57.0882
57.0853
57.0824
57.0795
57.0766
57.0737
57.0708
57.068
57.0651
57.0622
57.0593
57.0564
57.0535
57.0507
57.0478
57.0449
57.042
57.0391
57.0362
57.0334
57.0305
57.0276
57.0247
57.0218
57.019
57.0161
57.0132
57.0103
57.0075
57.0046
57.0017
56.9988
56.9959
56.9931
56.9902
56.9873
56.9844
56.9816
56.9787
56.9758
56.973
56.9701
56.9672
56.9643
56.9615
56.9586
56.9557
56.9529
56.95
56.9471
56.9442
56.9414
56.9385
56.9356
56.9328
56.9299
56.927
56.9242
56.9213
56.9184
56.9156
56.9127
56.9099
56.907
56.9041
56.9013
56.8984
56.8955
56.8927
56.8898
56.887
56.8841
56.8812
56.8784
56.8755
56.8727
56.8698
56.8669
56.8641
56.8612
56.8584
56.8555
56.8526
56.8498
56.8469
56.8441
56.8412
56.8384
56.8355
56.8327
56.8298
56.827
56.8241
56.8213
56.8184
56.8156
56.8127
56.8099
56.807
56.8042
56.8013
56.7985
56.7956
56.7928
56.7899
56.7871
56.7842
56.7814
56.7785
56.7757
56.7728
56.77
56.7671
56.7643
56.7615
56.7586
56.7558
56.7529
56.7501
56.7472
56.7444
56.7416
56.7387
56.7359
56.733
56.7302
56.7274
56.7245
56.7217
56.7188
56.716
56.7132
56.7103
56.7075
56.7047
56.7018
56.699
56.6961
56.6933
56.6905
56.6876
56.6848
56.682
56.6791
56.6763
56.6735
56.6707
56.6678
56.665
56.6622
56.6593
56.6565
56.6537
56.6508
56.648
56.6452
56.6424
56.6395
56.6367
56.6339
56.6311
56.6282
56.6254
56.6226
56.6198
56.6169
56.6141
56.6113
56.6085
56.6056
56.6028
56.6
56.5972
56.5943
56.5915
56.5887
56.5859
56.5831
56.5803
56.5774
56.5746
56.5718
56.569
56.5662
56.5633
56.5605
56.5577
56.5549
56.5521
56.5493
56.5465
56.5436
56.5408
56.538
56.5352
56.5324
56.5296
56.5268
56.524
56.5211
56.5183
56.5155
56.5127
56.5099
56.5071
56.5043
56.5015
56.4987
56.4959
56.4931
56.4902
56.4874
56.4846
56.4818
56.479
56.4762
56.4734
56.4706
56.4678
56.465
56.4622
56.4594
56.4566
56.4538
56.451
56.4482
56.4454
56.4426
56.4398
56.437
56.4342
56.4314
56.4286
56.4258
56.423
56.4202
56.4174
56.4146
56.4118
56.409
56.4062
56.4034
56.4006
56.3978
56.395
56.3923
56.3895
56.3867
56.3839
56.3811
56.3783
56.3755
56.3727
56.3699
56.3671
56.3643
56.3616
56.3588
56.356
56.3532
56.3504
56.3476
56.3448
56.342
56.3393
56.3365
56.3337
56.3309
56.3281
56.3253
56.3226
56.3198
56.317
56.3142
56.3114
56.3086
56.3059
56.3031
56.3003
56.2975
56.2947
56.292
56.2892
56.2864
56.2836
56.2808
56.2781
56.2753
56.2725
56.2697
56.267
56.2642
56.2614
56.2586
56.2559
56.2531
56.2503
56.2475
56.2448
56.242
56.2392
56.2365
56.2337
56.2309
56.2281
56.2254
56.2226
56.2198
56.2171
56.2143
56.2115
56.2088
56.206
56.2032
56.2005
56.1977
56.1949
56.1922
56.1894
56.1866
56.1839
56.1811
56.1783
56.1756
56.1728
56.17
56.1673
56.1645
56.1618
56.159
56.1562
56.1535
56.1507
56.148
56.1452
56.1424
56.1397
56.1369
56.1342
56.1314
56.1287
56.1259
56.1231
56.1204
56.1176
56.1149
56.1121
56.1094
56.1066
56.1039
56.1011
56.0984
56.0956
56.0929
56.0901
56.0874
56.0846
56.0819
56.0791
56.0764
56.0736
56.0709
56.0681
56.0654
56.0626
56.0599
56.0571
56.0544
56.0516
56.0489
56.0461
56.0434
56.0406
56.0379
56.0352
56.0324
56.0297
56.0269
56.0242
56.0214
56.0187
56.016
56.0132
56.0105
56.0077
56.005
56.0023
55.9995
55.9968
55.994
55.9913
55.9886
55.9858
55.9831
55.9804
55.9776
55.9749
55.9722
55.9694
55.9667
55.964
55.9612
55.9585
55.9558
55.953
55.9503
55.9476
55.9448
55.9421
55.9394
55.9366
55.9339
55.9312
55.9284
55.9257
55.923
55.9203
55.9175
55.9148
55.9121
55.9094
55.9066
55.9039
55.9012
55.8985
55.8957
55.893
55.8903
55.8876
55.8848
55.8821
55.8794
55.8767
55.8739
55.8712
55.8685
55.8658
55.8631
55.8603
55.8576
55.8549
55.8522
55.8495
55.8468
55.844
55.8413
55.8386
55.8359
55.8332
55.8305
55.8277
55.825
55.8223
55.8196
55.8169
55.8142
55.8115
55.8088
55.806
55.8033
55.8006
55.7979
55.7952
55.7925
55.7898
55.7871
55.7844
55.7817
55.7789
55.7762
55.7735
55.7708
55.7681
55.7654
55.7627
55.76
55.7573
55.7546
55.7519
55.7492
55.7465
55.7438
55.7411
55.7384
55.7357
55.733
55.7303
55.7276
55.7249
55.7222
55.7195
55.7168
55.7141
55.7114
55.7087
55.706
55.7033
55.7006
55.6979
55.6952
55.6925
55.6898
55.6871
55.6844
55.6817
55.679
55.6763
55.6736
55.6709
55.6682
55.6656
55.6629
55.6602
55.6575
55.6548
55.6521
55.6494
55.6467
55.644
55.6413
55.6387
55.636
55.6333
55.6306
55.6279
55.6252
55.6225
55.6198
55.6172
55.6145
55.6118
55.6091
55.6064
55.6037
55.6011
55.5984
55.5957
55.593
55.5903
55.5876
55.585
55.5823
55.5796
55.5769
55.5742
55.5716
55.5689
55.5662
55.5635
55.5609
55.5582
55.5555
55.5528
55.5501
55.5475
55.5448
55.5421
55.5394
55.5368
55.5341
55.5314
55.5288
55.5261
55.5234
55.5207
55.5181
55.5154
55.5127
55.5101
55.5074
55.5047
55.502
55.4994
55.4967
55.494
55.4914
55.4887
55.486
55.4834
55.4807
55.478
55.4754
55.4727
55.47
55.4674
55.4647
55.4621
55.4594
55.4567
55.4541
55.4514
55.4487
55.4461
55.4434
55.4408
55.4381
55.4354
55.4328
55.4301
55.4275
55.4248
55.4221
55.4195
55.4168
55.4142
55.4115
55.4089
55.4062
55.4036
55.4009
55.3982
55.3956
55.3929
55.3903
55.3876
55.385
55.3823
55.3797
55.377
55.3744
55.3717
55.3691
55.3664
55.3638
55.3611
55.3585
55.3558
55.3532
55.3505
55.3479
55.3452
55.3426
55.3399
55.3373
55.3346
55.332
55.3294
55.3267
55.3241
55.3214
55.3188
55.3161
55.3135
55.3109
55.3082
55.3056
55.3029
55.3003
55.2976
55.295
55.2924
55.2897
55.2871
55.2845
55.2818
55.2792
55.2765
55.2739
55.2713
55.2686
55.266
55.2634
55.2607
55.2581
55.2555
55.2528
55.2502
55.2476
55.2449
55.2423
55.2397
55.237
55.2344
55.2318
55.2291
55.2265
55.2239
55.2212
55.2186
55.216
55.2134
55.2107
55.2081
55.2055
55.2028
55.2002
55.1976
55.195
55.1923
55.1897
55.1871
55.1845
55.1818
55.1792
55.1766
55.174
55.1714
55.1687
55.1661
55.1635
55.1609
55.1583
55.1556
55.153
55.1504
55.1478
55.1452
55.1425
55.1399
55.1373
55.1347
55.1321
55.1294
55.1268
55.1242
55.1216
55.119
55.1164
55.1138
55.1111
55.1085
55.1059
55.1033
55.1007
55.0981
55.0955
55.0929
55.0902
55.0876
55.085
55.0824
55.0798
55.0772
55.0746
55.072
55.0694
55.0668
55.0642
55.0616
55.0589
55.0563
55.0537
55.0511
55.0485
55.0459
55.0433
55.0407
55.0381
55.0355
55.0329
55.0303
55.0277
55.0251
55.0225
55.0199
55.0173
55.0147
55.0121
55.0095
55.0069
55.0043
55.0017
54.9991
54.9965
54.9939
54.9913
54.9887
54.9861
54.9835
54.9809
54.9783
54.9757
54.9731
54.9706
54.968
54.9654
54.9628
54.9602
54.9576
54.955
54.9524
54.9498
54.9472
54.9446
54.942
54.9395
54.9369
54.9343
54.9317
54.9291
54.9265
54.9239
54.9213
54.9188
54.9162
54.9136
54.911
54.9084
54.9058
54.9032
54.9007
54.8981
54.8955
54.8929
54.8903
54.8877
54.8852
54.8826
54.88
54.8774
54.8748
54.8723
54.8697
54.8671
54.8645
54.8619
54.8594
54.8568
54.8542
54.8516
54.8491
54.8465
54.8439
54.8413
54.8388
54.8362
54.8336
54.831
54.8285
54.8259
54.8233
54.8207
54.8182
54.8156
54.813
54.8105
54.8079
54.8053
54.8027
54.8002
54.7976
54.795
54.7925
54.7899
54.7873
54.7848
54.7822
54.7796
54.7771
54.7745
54.7719
54.7694
54.7668
54.7642
54.7617
54.7591
54.7566
54.754
54.7514
54.7489
54.7463
54.7437
54.7412
54.7386
54.7361
54.7335
54.7309
54.7284
54.7258
54.7233
54.7207
54.7182
54.7156
54.713
54.7105
54.7079
54.7054
54.7028
54.7003
54.6977
54.6952
54.6926
54.69
54.6875
54.6849
54.6824
54.6798
54.6773
54.6747
54.6722
54.6696
54.6671
54.6645
54.662
54.6594
54.6569
54.6543
54.6518
54.6492
54.6467
54.6441
54.6416
54.6391
54.6365
54.634
54.6314
54.6289
54.6263
54.6238
54.6212
54.6187
54.6162
54.6136
54.6111
54.6085
54.606
54.6034
54.6009
54.5984
54.5958
54.5933
54.5907
54.5882
54.5857
54.5831
54.5806
54.5781
54.5755
54.573
54.5704
54.5679
54.5654
54.5628
54.5603
54.5578
54.5552
54.5527
54.5502
54.5476
54.5451
54.5426
54.54
54.5375
54.535
54.5324
54.5299
54.5274
54.5248
54.5223
54.5198
54.5173
54.5147
54.5122
54.5097
54.5072
54.5046
54.5021
54.4996
54.497
54.4945
54.492
54.4895
54.4869
54.4844
54.4819
54.4794
54.4769
54.4743
54.4718
54.4693
54.4668
54.4642
54.4617
54.4592
54.4567
54.4542
54.4516
54.4491
54.4466
54.4441
54.4416
54.4391
54.4365
54.434
54.4315
54.429
54.4265
54.424
54.4214
54.4189
54.4164
54.4139
54.4114
54.4089
54.4064
54.4039
54.4013
54.3988
54.3963
54.3938
54.3913
54.3888
54.3863
54.3838
54.3813
54.3787
54.3762
54.3737
54.3712
54.3687
54.3662
54.3637
54.3612
54.3587
54.3562
54.3537
54.3512
54.3487
54.3462
54.3437
54.3412
54.3387
54.3362
54.3337
54.3312
54.3287
54.3262
54.3237
54.3212
54.3187
54.3162
54.3137
54.3112
54.3087
54.3062
54.3037
54.3012
54.2987
54.2962
54.2937
54.2912
54.2887
54.2862
54.2837
54.2812
54.2787
54.2762
54.2737
54.2712
54.2687
54.2662
54.2637
54.2613
54.2588
54.2563
54.2538
54.2513
54.2488
54.2463
54.2438
54.2413
54.2388
54.2364
54.2339
54.2314
54.2289
54.2264
54.2239
54.2214
54.219
54.2165
54.214
54.2115
54.209
54.2065
54.2041
54.2016
54.1991
54.1966
54.1941
54.1916
54.1892
54.1867
54.1842
54.1817
54.1792
54.1768
54.1743
54.1718
54.1693
54.1668
54.1644
54.1619
54.1594
54.1569
54.1545
54.152
54.1495
54.147
54.1446
54.1421
54.1396
54.1371
54.1347
54.1322
54.1297
54.1273
54.1248
54.1223
54.1198
54.1174
54.1149
54.1124
54.11
54.1075
54.105
54.1026
54.1001
54.0976
54.0952
54.0927
54.0902
54.0878
54.0853
54.0828
54.0804
54.0779
54.0754
54.073
54.0705
54.068
54.0656
54.0631
54.0606
54.0582
54.0557
54.0533
54.0508
54.0483
54.0459
54.0434
54.041
54.0385
54.036
54.0336
54.0311
54.0287
54.0262
54.0238
54.0213
54.0188
54.0164
54.0139
54.0115
54.009
54.0066
54.0041
54.0017
53.9992
53.9968
53.9943
53.9919
53.9894
53.9869
53.9845
53.982
53.9796
53.9771
53.9747
53.9722
53.9698
53.9673
53.9649
53.9625
53.96
53.9576
53.9551
53.9527
53.9502
53.9478
53.9453
53.9429
53.9404
53.938
53.9356
53.9331
53.9307
53.9282
53.9258
53.9233
53.9209
53.9185
53.916
53.9136
53.9111
53.9087
53.9063
53.9038
53.9014
53.8989
53.8965
53.8941
53.8916
53.8892
53.8868
53.8843
53.8819
53.8794
53.877
53.8746
53.8721
53.8697
53.8673
53.8648
53.8624
53.86
53.8575
53.8551
53.8527
53.8502
53.8478
53.8454
53.843
53.8405
53.8381
53.8357
53.8332
53.8308
53.8284
53.826
53.8235
53.8211
53.8187
53.8162
53.8138
53.8114
53.809
53.8065
53.8041
53.8017
53.7993
53.7968
53.7944
53.792
53.7896
53.7872
53.7847
53.7823
53.7799
53.7775
53.7751
53.7726
53.7702
53.7678
53.7654
53.763
53.7605
53.7581
53.7557
53.7533
53.7509
53.7485
53.746
53.7436
53.7412
53.7388
53.7364
53.734
53.7315
53.7291
53.7267
53.7243
53.7219
53.7195
53.7171
53.7147
53.7123
53.7098
53.7074
53.705
53.7026
53.7002
53.6978
53.6954
53.693
53.6906
53.6882
53.6858
53.6833
53.6809
53.6785
53.6761
53.6737
53.6713
53.6689
53.6665
53.6641
53.6617
53.6593
53.6569
53.6545
53.6521
53.6497
53.6473
53.6449
53.6425
53.6401
53.6377
53.6353
53.6329
53.6305
53.6281
53.6257
53.6233
53.6209
53.6185
53.6161
53.6137
53.6113
53.6089
53.6065
53.6041
53.6017
53.5993
53.5969
53.5946
53.5922
53.5898
53.5874
53.585
53.5826
53.5802
53.5778
53.5754
53.573
53.5706
53.5683
53.5659
53.5635
53.5611
53.5587
53.5563
53.5539
53.5515
53.5491
53.5468
53.5444
53.542
53.5396
53.5372
53.5348
53.5325
53.5301
53.5277
53.5253
53.5229
53.5205
53.5182
53.5158
53.5134
53.511
53.5086
53.5062
53.5039
53.5015
53.4991
53.4967
53.4944
53.492
53.4896
53.4872
53.4848
53.4825
53.4801
53.4777
53.4753
53.473
53.4706
53.4682
53.4658
53.4635
53.4611
53.4587
53.4563
53.454
53.4516
53.4492
53.4469
53.4445
53.4421
53.4397
53.4374
53.435
53.4326
53.4303
53.4279
53.4255
53.4232
53.4208
53.4184
53.4161
53.4137
53.4113
53.409
53.4066
53.4042
53.4019
53.3995
53.3971
53.3948
53.3924
53.39
53.3877
53.3853
53.383
53.3806
53.3782
53.3759
53.3735
53.3712
53.3688
53.3664
53.3641
53.3617
53.3594
53.357
53.3546
53.3523
53.3499
53.3476
53.3452
53.3429
53.3405
53.3382
53.3358
53.3334
53.3311
53.3287
53.3264
53.324
53.3217
53.3193
53.317
53.3146
53.3123
53.3099
53.3076
53.3052
53.3029
53.3005
53.2982
53.2958
53.2935
53.2911
53.2888
53.2864
53.2841
53.2817
53.2794
53.277
53.2747
53.2724
53.27
53.2677
53.2653
53.263
53.2606
53.2583
53.2559
53.2536
53.2513
53.2489
53.2466
53.2442
53.2419
53.2396
53.2372
53.2349
53.2325
53.2302
53.2279
53.2255
53.2232
53.2208
53.2185
53.2162
53.2138
53.2115
53.2092
53.2068
53.2045
53.2022
53.1998
53.1975
53.1952
53.1928
53.1905
53.1882
53.1858
53.1835
53.1812
53.1788
53.1765
53.1742
53.1718
53.1695
53.1672
53.1649
53.1625
53.1602
53.1579
53.1555
53.1532
53.1509
53.1486
53.1462
53.1439
53.1416
53.1393
53.1369
53.1346
53.1323
53.13
53.1276
53.1253
53.123
53.1207
53.1183
53.116
53.1137
53.1114
53.1091
53.1067
53.1044
53.1021
53.0998
53.0975
53.0951
53.0928
53.0905
53.0882
53.0859
53.0836
53.0812
53.0789
53.0766
53.0743
53.072
53.0697
53.0673
53.065
53.0627
53.0604
53.0581
53.0558
53.0535
53.0512
53.0488
53.0465
53.0442
53.0419
53.0396
53.0373
53.035
53.0327
53.0304
53.0281
53.0257
53.0234
53.0211
53.0188
53.0165
53.0142
53.0119
53.0096
53.0073
53.005
53.0027
53.0004
52.9981
52.9958
52.9935
52.9912
52.9889
52.9866
52.9843
52.982
52.9797
52.9774
52.9751
52.9728
52.9705
52.9682
52.9659
52.9636
52.9613
52.959
52.9567
52.9544
52.9521
52.9498
52.9475
52.9452
52.9429
52.9406
52.9383
52.936
52.9337
52.9314
52.9291
52.9268
52.9245
52.9222
52.92
52.9177
52.9154
52.9131
52.9108
52.9085
52.9062
52.9039
52.9016
52.8993
52.8971
52.8948
52.8925
52.8902
52.8879
52.8856
52.8833
52.881
52.8788
52.8765
52.8742
52.8719
52.8696
52.8673
52.8651
52.8628
52.8605
52.8582
52.8559
52.8536
52.8514
52.8491
52.8468
52.8445
52.8422
52.84
52.8377
52.8354
52.8331
52.8308
52.8286
52.8263
52.824
52.8217
52.8195
52.8172
52.8149
52.8126
52.8103
52.8081
52.8058
52.8035
52.8013
52.799
52.7967
52.7944
52.7922
52.7899
52.7876
52.7853
52.7831
52.7808
52.7785
52.7763
52.774
52.7717
52.7695
52.7672
52.7649
52.7626
52.7604
52.7581
52.7558
52.7536
52.7513
52.749
52.7468
52.7445
52.7423
52.74
52.7377
52.7355
52.7332
52.7309
52.7287
52.7264
52.7241
52.7219
52.7196
52.7174
52.7151
52.7128
52.7106
52.7083
52.7061
52.7038
52.7015
52.6993
52.697
52.6948
52.6925
52.6903
52.688
52.6857
52.6835
52.6812
52.679
52.6767
52.6745
52.6722
52.67
52.6677
52.6655
52.6632
52.6609
52.6587
52.6564
52.6542
52.6519
52.6497
52.6474
52.6452
52.6429
52.6407
52.6384
52.6362
52.6339
52.6317
52.6294
52.6272
52.625
52.6227
52.6205
52.6182
52.616
52.6137
52.6115
52.6092
52.607
52.6047
52.6025
52.6003
52.598
52.5958
52.5935
52.5913
52.5891
52.5868
52.5846
52.5823
52.5801
52.5779
52.5756
52.5734
52.5711
52.5689
52.5667
52.5644
52.5622
52.5599
52.5577
52.5555
52.5532
52.551
52.5488
52.5465
52.5443
52.5421
52.5398
52.5376
52.5354
52.5331
52.5309
52.5287
52.5264
52.5242
52.522
52.5197
52.5175
52.5153
52.5131
52.5108
52.5086
52.5064
52.5041
52.5019
52.4997
52.4975
52.4952
52.493
52.4908
52.4885
52.4863
52.4841
52.4819
52.4796
52.4774
52.4752
52.473
52.4708
52.4685
52.4663
52.4641
52.4619
52.4596
52.4574
52.4552
52.453
52.4508
52.4485
52.4463
52.4441
52.4419
52.4397
52.4375
52.4352
52.433
52.4308
52.4286
52.4264
52.4241
52.4219
52.4197
52.4175
52.4153
52.4131
52.4109
52.4086
52.4064
52.4042
52.402
52.3998
52.3976
52.3954
52.3932
52.391
52.3887
52.3865
52.3843
52.3821
52.3799
52.3777
52.3755
52.3733
52.3711
52.3689
52.3667
52.3645
52.3622
52.36
52.3578
52.3556
52.3534
52.3512
52.349
52.3468
52.3446
52.3424
52.3402
52.338
52.3358
52.3336
52.3314
52.3292
52.327
52.3248
52.3226
52.3204
52.3182
52.316
52.3138
52.3116
52.3094
52.3072
52.305
52.3028
52.3006
52.2984
52.2962
52.294
52.2918
52.2896
52.2874
52.2852
52.283
52.2809
52.2787
52.2765
52.2743
52.2721
52.2699
52.2677
52.2655
52.2633
52.2611
52.2589
52.2567
52.2546
52.2524
52.2502
52.248
52.2458
52.2436
52.2414
52.2392
52.2371
52.2349
52.2327
52.2305
52.2283
52.2261
52.2239
52.2218
52.2196
52.2174
52.2152
52.213
52.2108
52.2087
52.2065
52.2043
52.2021
52.1999
52.1978
52.1956
52.1934
52.1912
52.189
52.1869
52.1847
52.1825
52.1803
52.1781
52.176
52.1738
52.1716
52.1694
52.1673
52.1651
52.1629
52.1607
52.1586
52.1564
52.1542
52.152
52.1499
52.1477
52.1455
52.1433
52.1412
52.139
52.1368
52.1347
52.1325
52.1303
52.1282
52.126
52.1238
52.1216
52.1195
52.1173
52.1151
52.113
52.1108
52.1086
52.1065
52.1043
52.1021
52.1
52.0978
52.0956
52.0935
52.0913
52.0892
52.087
52.0848
52.0827
52.0805
52.0783
52.0762
52.074
52.0719
52.0697
52.0675
52.0654
52.0632
52.0611
52.0589
52.0567
52.0546
52.0524
52.0503
52.0481
52.046
52.0438
52.0416
52.0395
52.0373
52.0352
52.033
52.0309
52.0287
52.0266
52.0244
52.0223
52.0201
52.0179
52.0158
52.0136
52.0115
52.0093
52.0072
52.005
52.0029
52.0007
51.9986
51.9964
51.9943
51.9921
51.99
51.9878
51.9857
51.9836
51.9814
51.9793
51.9771
51.975
51.9728
51.9707
51.9685
51.9664
51.9642
51.9621
51.96
51.9578
51.9557
51.9535
51.9514
51.9492
51.9471
51.945
51.9428
51.9407
51.9385
51.9364
51.9343
51.9321
51.93
51.9279
51.9257
51.9236
51.9214
51.9193
51.9172
51.915
51.9129
51.9108
51.9086
51.9065
51.9044
51.9022
51.9001
51.898
51.8958
51.8937
51.8916
51.8894
51.8873
51.8852
51.883
51.8809
51.8788
51.8766
51.8745
51.8724
51.8702
51.8681
51.866
51.8639
51.8617
51.8596
51.8575
51.8554
51.8532
51.8511
51.849
51.8469
51.8447
51.8426
51.8405
51.8384
51.8362
51.8341
51.832
51.8299
51.8277
51.8256
51.8235
51.8214
51.8193
51.8171
51.815
51.8129
51.8108
51.8087
51.8065
51.8044
51.8023
51.8002
51.7981