# vtk DataFile Version 2.0
vtk output
ASCII
DATASET STRUCTURED_GRID
DIMENSIONS 50 10 30
POINTS 15000 float
0 0 0
1 0 0
2 0 0
3 0 0
4 0 0
5 0 0
6 0 0
7 0 0
8 0 0
9 0 0
10 0 0
11 0 0
12 0 0
13 0 0
14 0 0
15 0 0
16 0 0
17 0 0
18 0 0
19 0 0
20 0 0
21 0 0
22 0 0
23 0 0
24 0 0
25 0 0
26 0 0
27 0 0
28 0 0
29 0 0
30 0 0
31 0 0
32 0 0
33 0 0
34 0 0
35 0 0
36 0 0
37 0 0
38 0 0
39 0 0
40 0 0
41 0 0
42 0 0
43 0 0
44 0 0
45 0 0
46 0 0
47 0 0
48 0 0
49 0 0
0 1 0
1 1 0
2 1 0
3 1 0
4 1 0
5 1 0
6 1 0
7 1 0
8 1 0
9 1 0
10 1 0
11 1 0
12 1 0
13 1 0
14 1 0
15 1 0
16 1 0
17 1 0
18 1 0
19 1 0
20 1 0
21 1 0
22 1 0
23 1 0
24 1 0
25 1 0
26 1 0
27 1 0
28 1 0
29 1 0
30 1 0
31 1 0
32 1 0
33 1 0
34 1 0
35 1 0
36 1 0
37 1 0
38 1 0
39 1 0
40 1 0
41 1 0
42 1 0
43 1 0
44 1 0
45 1 0
46 1 0
47 1 0
48 1 0
49 1 0
0 2 0
1 2 0
2 2 0
3 2 0
4 2 0
5 2 0
6 2 0
7 2 0
8 2 0
9 2 0
10 2 0
11 2 0
12 2 0
13 2 0
14 2 0
15 2 0
16 2 0
17 2 0
18 2 0
19 2 0
20 2 0
21 2 0
22 2 0
23 2 0
24 2 0
25 2 0
26 2 0
27 2 0
28 2 0
29 2 0
30 2 0
31 2 0
32 2 0
33 2 0
34 2 0
35 2 0
36 2 0
37 2 0
38 2 0
39 2 0
40 2 0
41 2 0
42 2 0
43 2 0
44 2 0
45 2 0
46 2 0
47 2 0
48 2 0
49 2 0
0 3 0
1 3 0
2 3 0
3 3 0
4 3 0
5 3 0
6 3 0
7 3 0
8 3 0
9 3 0
10 3 0
11 3 0
12 3 0
13 3 0
14 3 0
15 3 0
16 3 0
17 3 0
18 3 0
19 3 0
20 3 0
21 3 0
22 3 0
23 3 0
24 3 0
25 3 0
26 3 0
27 3 0
28 3 0
29 3 0
30 3 0
31 3 0
32 3 0
33 3 0
34 3 0
35 3 0
36 3 0
37 3 0
38 3 0
39 3 0
40 3 0
41 3 0
42 3 0
43 3 0
44 3 0
45 3 0
46 3 0
47 3 0
48 3 0
49 3 0
0 4 0
1 4 0
2 4 0
3 4 0
4 4 0
5 4 0
6 4 0
7 4 0
8 4 0
9 4 0
10 4 0
11 4 0
12 4 0
13 4 0
14 4 0
15 4 0
16 4 0
17 4 0
18 4 0
19 4 0
20 4 0
21 4 0
22 4 0
23 4 0
24 4 0
25 4 0
26 4 0
27 4 0
28 4 0
29 4 0
30 4 0
31 4 0
32 4 0
33 4 0
34 4 0
35 4 0
36 4 0
37 4 0
38 4 0
39 4 0
40 4 0
41 4 0
42 4 0
43 4 0
44 4 0
45 4 0
46 4 0
47 4 0
48 4 0
49 4 0
0 5 0
1 5 0
2 5 0
3 5 0
4 5 0
5 5 0
6 5 0
7 5 0
8 5 0
9 5 0
10 5 0
11 5 0
12 5 0
13 5 0
14 5 0
15 5 0
16 5 0
17 5 0
18 5 0
19 5 0
20 5 0
21 5 0
22 5 0
23 5 0
24 5 0
25 5 0
26 5 0
27 5 0
28 5 0
29 5 0
30 5 0
31 5 0
32 5 0
33 5 0
34 5 0
35 5 0
36 5 0
37 5 0
38 5 0
39 5 0
40 5 0
41 5 0
42 5 0
43 5 0
44 5 0
45 5 0
46 5 0
47 5 0
48 5 0
49 5 0
0 6 0
1 6 0
2 6 0
3 6 0
4 6 0
5 6 0
6 6 0
7 6 0
8 6 0
9 6 0
10 6 0
11 6 0
12 6 0
13 6 0
14 6 0
15 6 0
16 6 0
17 6 0
18 6 0
19 6 0
20 6 0
21 6 0
22 6 0
23 6 0
24 6 0
25 6 0
26 6 0
27 6 0
28 6 0
29 6 0
30 6 0
31 6 0
32 6 0
33 6 0
34 6 0
35 6 0
36 6 0
37 6 0
38 6 0
39 6 0
40 6 0
41 6 0
42 6 0
43 6 0
44 6 0
45 6 0
46 6 0
47 6 0
48 6 0
49 6 0
0 7 0
1 7 0
2 7 0
3 7 0
4 7 0
5 7 0
6 7 0
7 7 0
8 7 0
9 7 0
10 7 0
11 7 0
12 7 0
13 7 0
14 7 0
15 7 0
16 7 0
17 7 0
18 7 0
19 7 0
20 7 0
21 7 0
22 7 0
23 7 0
24 7 0
25 7 0
26 7 0
27 7 0
28 7 0
29 7 0
30 7 0
31 7 0
32 7 0
33 7 0
34 7 0
35 7 0
36 7 0
37 7 0
38 7 0
39 7 0
40 7 0
41 7 0
42 7 0
43 7 0
44 7 0
45 7 0
46 7 0
47 7 0
48 7 0
49 7 0
0 8 0
1 8 0
2 8 0
3 8 0
4 8 0
5 8 0
6 8 0
7 8 0
8 8 0
9 8 0
10 8 0
11 8 0
12 8 0
13 8 0
14 8 0
15 8 0
16 8 0
17 8 0
18 8 0
19 8 0
20 8 0
21 8 0
22 8 0
23 8 0
24 8 0
25 8 0
26 8 0
27 8 0
28 8 0
29 8 0
30 8 0
31 8 0
32 8 0
33 8 0
34 8 0
35 8 0
36 8 0
37 8 0
38 8 0
39 8 0
40 8 0
41 8 0
42 8 0
43 8 0
44 8 0
45 8 0
46 8 0
47 8 0
48 8 0
49 8 0
0 9 0
1 9 0
2 9 0
3 9 0
4 9 0
5 9 0
6 9 0
7 9 0
8 9 0
9 9 0
10 9 0
11 9 0
12 9 0
13 9 0
14 9 0
15 9 0
16 9 0
17 9 0
18 9 0
19 9 0
20 9 0
21 9 0
22 9 0
23 9 0
24 9 0
25 9 0
26 9 0
27 9 0
28 9 0
29 9 0
30 9 0
31 9 0
32 9 0
33 9 0
34 9 0
35 9 0
36 9 0
37 9 0
38 9 0
39 9 0
40 9 0
41 9 0
42 9 0
43 9 0
44 9 0
45 9 0
46 9 0
47 9 0
48 9 0
49 9 0
0 0 1
1 0 1
2 0 1
3 0 1
4 0 1
5 0 1
6 0 1
7 0 1
8 0 1
9 0 1
10 0 1
11 0 1
12 0 1
13 0 1
14 0 1
15 0 1
16 0 1
17 0 1
18 0 1
19 0 1
20 0 1
21 0 1
22 0 1
23 0 1
24 0 1
25 0 1
26 0 1
27 0 1
28 0 1
29 0 1
30 0 1
31 0 1
32 0 1
33 0 1
34 0 1
35 0 1
36 0 1
37 0 1
38 0 1
39 0 1
40 0 1
41 0 1
42 0 1
43 0 1
44 0 1
45 0 1
46 0 1
47 0 1
48 0 1
49 0 1
0 1 1
1 1 1
2 1 1
3 1 1
4 1 1
5 1 1
6 1 1
7 1 1
8 1 1
9 1 1
10 1 1
11 1 1
12 1 1
13 1 1
14 1 1
15 1 1
16 1 1
17 1 1
18 1 1
19 1 1
20 1 1
21 1 1
22 1 1
23 1 1
24 1 1
25 1 1
26 1 1
27 1 1
28 1 1
29 1 1
30 1 1
31 1 1
32 1 1
33 1 1
34 1 1
35 1 1
36 1 1
37 1 1
38 1 1
39 1 1
40 1 1
41 1 1
42 1 1
43 1 1
44 1 1
45 1 1
46 1 1
47 1 1
48 1 1
49 1 1
0 2 1
1 2 1
2 2 1
3 2 1
4 2 1
5 2 1
6 2 1
7 2 1
8 2 1
9 2 1
10 2 1
11 2 1
12 2 1
13 2 1
14 2 1
15 2 1
16 2 1
17 2 1
18 2 1
19 2 1
20 2 1
21 2 1
22 2 1
23 2 1
24 2 1
25 2 1
26 2 1
27 2 1
28 2 1
29 2 1
30 2 1
31 2 1
32 2 1
33 2 1
34 2 1
35 2 1
36 2 1
37 2 1
38 2 1
39 2 1
40 2 1
41 2 1
42 2 1
43 2 1
44 2 1
45 2 1
46 2 1
47 2 1
48 2 1
49 2 1
0 3 1
1 3 1
2 3 1
3 3 1
4 3 1
5 3 1
6 3 1
7 3 1
8 3 1
9 3 1
10 3 1
11 3 1
12 3 1
13 3 1
14 3 1
15 3 1
16 3 1
17 3 1
18 3 1
19 3 1
20 3 1
21 3 1
22 3 1
23 3 1
24 3 1
25 3 1
26 3 1
27 3 1
28 3 1
29 3 1
30 3 1
31 3 1
32 3 1
33 3 1
34 3 1
35 3 1
36 3 1
37 3 1
38 3 1
39 3 1
40 3 1
41 3 1
42 3 1
43 3 1
44 3 1
45 3 1
46 3 1
47 3 1
48 3 1
49 3 1
0 4 1
1 4 1
2 4 1
3 4 1
4 4 1
5 4 1
6 4 1
7 4 1
8 4 1
9 4 1
10 4 1
11 4 1
12 4 1
13 4 1
14 4 1
15 4 1
16 4 1
17 4 1
18 4 1
19 4 1
20 4 1
21 4 1
22 4 1
23 4 1
24 4 1
25 4 1
26 4 1
27 4 1
28 4 1
29 4 1
30 4 1
31 4 1
32 4 1
33 4 1
34 4 1
35 4 1
36 4 1
37 4 1
38 4 1
39 4 1
40 4 1
41 4 1
42 4 1
43 4 1
44 4 1
45 4 1
46 4 1
47 4 1
48 4 1
49 4 1
0 5 1
1 5 1
2 5 1
3 5 1
4 5 1
5 5 1
6 5 1
7 5 1
8 5 1
9 5 1
10 5 1
11 5 1
12 5 1
13 5 1
14 5 1
15 5 1
16 5 1
17 5 1
18 5 1
19 5 1
20 5 1
21 5 1
22 5 1
23 5 1
24 5 1
25 5 1
26 5 1
27 5 1
28 5 1
29 5 1
30 5 1
31 5 1
32 5 1
33 5 1
34 5 1
35 5 1
36 5 1
37 5 1
38 5 1
39 5 1
40 5 1
41 5 1
42 5 1
43 5 1
44 5 1
45 5 1
46 5 1
47 5 1
48 5 1
49 5 1
0 6 1
1 6 1
2 6 1
3 6 1
4 6 1
5 6 1
6 6 1
7 6 1
8 6 1
9 6 1
10 6 1
11 6 1
12 6 1
13 6 1
14 6 1
15 6 1
16 6 1
17 6 1
18 6 1
19 6 1
20 6 1
21 6 1
22 6 1
23 6 1
24 6 1
25 6 1
26 6 1
27 6 1
28 6 1
29 6 1
30 6 1
31 6 1
32 6 1
33 6 1
34 6 1
35 6 1
36 6 1
37 6 1
38 6 1
39 6 1
40 6 1
41 6 1
42 6 1
43 6 1
44 6 1
45 6 1
46 6 1
47 6 1
48 6 1
49 6 1
0 7 1
1 7 1
2 7 1
3 7 1
4 7 1
5 7 1
6 7 1
7 7 1
8 7 1
9 7 1
10 7 1
11 7 1
12 7 1
13 7 1
14 7 1
15 7 1
16 7 1
17 7 1
18 7 1
19 7 1
20 7 1
21 7 1
22 7 1
23 7 1
24 7 1
25 7 1
26 7 1
27 7 1
28 7 1
29 7 1
30 7 1
31 7 1
32 7 1
33 7 1
34 7 1
35 7 1
36 7 1
37 7 1
38 7 1
39 7 1
40 7 1
41 7 1
42 7 1
43 7 1
44 7 1
45 7 1
46 7 1
47 7 1
48 7 1
49 7 1
0 8 1
1 8 1
2 8 1
3 8 1
4 8 1
5 8 1
6 8 1
7 8 1
8 8 1
9 8 1
10 8 1
11 8 1
12 8 1
13 8 1
14 8 1
15 8 1
16 8 1
17 8 1
18 8 1
19 8 1
20 8 1
21 8 1
22 8 1
23 8 1
24 8 1
25 8 1
26 8 1
27 8 1
28 8 1
29 8 1
30 8 1
31 8 1
32 8 1
33 8 1
34 8 1
35 8 1
36 8 1
37 8 1
38 8 1
39 8 1
40 8 1
41 8 1
42 8 1
43 8 1
44 8 1
45 8 1
46 8 1
47 8 1
48 8 1
49 8 1
0 9 1
1 9 1
2 9 1
3 9 1
4 9 1
5 9 1
6 9 1
7 9 1
8 9 1
9 9 1
10 9 1
11 9 1
12 9 1
13 9 1
14 9 1
15 9 1
16 9 1
17 9 1
18 9 1
19 9 1
20 9 1
21 9 1
22 9 1
23 9 1
24 9 1
25 9 1
26 9 1
27 9 1
28 9 1
29 9 1
30 9 1
31 9 1
32 9 1
33 9 1
34 9 1
35 9 1
36 9 1
37 9 1
38 9 1
39 9 1
40 9 1
41 9 1
42 9 1
43 9 1
44 9 1
45 9 1
46 9 1
47 9 1
48 9 1
49 9 1
0 0 2
1 0 2
2 0 2
3 0 2
4 0 2
5 0 2
6 0 2
7 0 2
8 0 2
9 0 2
10 0 2
11 0 2
12 0 2
13 0 2
14 0 2
15 0 2
16 0 2
17 0 2
18 0 2
19 0 2
20 0 2
21 0 2
22 0 2
23 0 2
24 0 2
25 0 2
26 0 2
27 0 2
28 0 2
29 0 2
30 0 2
31 0 2
32 0 2
33 0 2
34 0 2
35 0 2
36 0 2
37 0 2
38 0 2
39 0 2
40 0 2
41 0 2
42 0 2
43 0 2
44 0 2
45 0 2
46 0 2
47 0 2
48 0 2
49 0 2
0 1 2
1 1 2
2 1 2
3 1 2
4 1 2
5 1 2
6 1 2
7 1 2
8 1 2
9 1 2
10 1 2
11 1 2
12 1 2
13 1 2
14 1 2
15 1 2
16 1 2
17 1 2
18 1 2
19 1 2
20 1 2
21 1 2
22 1 2
23 1 2
24 1 2
25 1 2
26 1 2
27 1 2
28 1 2
29 1 2
30 1 2
31 1 2
32 1 2
33 1 2
34 1 2
35 1 2
36 1 2
37 1 2
38 1 2
39 1 2
40 1 2
41 1 2
42 1 2
43 1 2
44 1 2
45 1 2
46 1 2
47 1 2
48 1 2
49 1 2
0 2 2
1 2 2
2 2 2
3 2 2
4 2 2
5 2 2
6 2 2
7 2 2
8 2 2
9 2 2
10 2 2
11 2 2
12 2 2
13 2 2
14 2 2
15 2 2
16 2 2
17 2 2
18 2 2
19 2 2
20 2 2
21 2 2
22 2 2
23 2 2
24 2 2
25 2 2
26 2 2
27 2 2
28 2 2
29 2 2
30 2 2
31 2 2
32 2 2
33 2 2
34 2 2
35 2 2
36 2 2
37 2 2
38 2 2
39 2 2
40 2 2
41 2 2
42 2 2
43 2 2
44 2 2
45 2 2
46 2 2
47 2 2
48 2 2
49 2 2
0 3 2
1 3 2
2 3 2
3 3 2
4 3 2
5 3 2
6 3 2
7 3 2
8 3 2
9 3 2
10 3 2
11 3 2
12 3 2
13 3 2
14 3 2
15 3 2
16 3 2
17 3 2
18 3 2
19 3 2
20 3 2
21 3 2
22 3 2
23 3 2
24 3 2
25 3 2
26 3 2
27 3 2
28 3 2
29 3 2
30 3 2
31 3 2
32 3 2
33 3 2
34 3 2
35 3 2
36 3 2
37 3 2
38 3 2
39 3 2
40 3 2
41 3 2
42 3 2
43 3 2
44 3 2
45 3 2
46 3 2
47 3 2
48 3 2
49 3 2
0 4 2
1 4 2
2 4 2
3 4 2
4 4 2
5 4 2
6 4 2
7 4 2
8 4 2
9 4 2
10 4 2
11 4 2
12 4 2
13 4 2
14 4 2
15 4 2
16 4 2
17 4 2
18 4 2
19 4 2
20 4 2
21 4 2
22 4 2
23 4 2
24 4 2
25 4 2
26 4 2
27 4 2
28 4 2
29 4 2
30 4 2
31 4 2
32 4 2
33 4 2
34 4 2
35 4 2
36 4 2
37 4 2
38 4 2
39 4 2
40 4 2
41 4 2
42 4 2
43 4 2
44 4 2
45 4 2
46 4 2
47 4 2
48 4 2
49 4 2
0 5 2
1 5 2
2 5 2
3 5 2
4 5 2
5 5 2
6 5 2
7 5 2
8 5 2
9 5 2
10 5 2
11 5 2
12 5 2
13 5 2
14 5 2
15 5 2
16 5 2
17 5 2
18 5 2
19 5 2
20 5 2
21 5 2
22 5 2
23 5 2
24 5 2
25 5 2
26 5 2
27 5 2
28 5 2
29 5 2
30 5 2
31 5 2
32 5 2
33 5 2
34 5 2
35 5 2
36 5 2
37 5 2
38 5 2
39 5 2
40 5 2
41 5 2
42 5 2
43 5 2
44 5 2
45 5 2
46 5 2
47 5 2
48 5 2
49 5 2
0 6 2
1 6 2
2 6 2
3 6 2
4 6 2
5 6 2
6 6 2
7 6 2
8 6 2
9 6 2
10 6 2
11 6 2
12 6 2
13 6 2
14 6 2
15 6 2
16 6 2
17 6 2
18 6 2
19 6 2
20 6 2
21 6 2
22 6 2
23 6 2
24 6 2
25 6 2
26 6 2
27 6 2
28 6 2
29 6 2
30 6 2
31 6 2
32 6 2
33 6 2
34 6 2
35 6 2
36 6 2
37 6 2
38 6 2
39 6 2
40 6 2
41 6 2
42 6 2
43 6 2
44 6 2
45 6 2
46 6 2
47 6 2
48 6 2
49 6 2
0 7 2
1 7 2
2 7 2
3 7 2
4 7 2
5 7 2
6 7 2
7 7 2
8 7 2
9 7 2
10 7 2
11 7 2
12 7 2
13 7 2
14 7 2
15 7 2
16 7 2
17 7 2
18 7 2
19 7 2
20 7 2
21 7 2
22 7 2
23 7 2
24 7 2
25 7 2
26 7 2
27 7 2
28 7 2
29 7 2
30 7 2
31 7 2
32 7 2
33 7 2
34 7 2
35 7 2
36 7 2
37 7 2
38 7 2
39 7 2
40 7 2
41 7 2
42 7 2
43 7 2
44 7 2
45 7 2
46 7 2
47 7 2
48 7 2
49 7 2
0 8 2
1 8 2
2 8 2
3 8 2
4 8 2
5 8 2
6 8 2
7 8 2
8 8 2
9 8 2
10 8 2
11 8 2
12 8 2
13 8 2
14 8 2
15 8 2
16 8 2
17 8 2
18 8 2
19 8 2
20 8 2
21 8 2
22 8 2
23 8 2
24 8 2
25 8 2
26 8 2
27 8 2
28 8 2
29 8 2
30 8 2
31 8 2
32 8 2
33 8 2
34 8 2
35 8 2
36 8 2
37 8 2
38 8 2
39 8 2
40 8 2
41 8 2
42 8 2
43 8 2
44 8 2
45 8 2
46 8 2
47 8 2
48 8 2
49 8 2
0 9 2
1 9 2
2 9 2
3 9 2
4 9 2
[...]
POINT_DATA 15000
SCALARS sol542 float
LOOKUP_TABLE default
58.4541
58.451
58.448
58.4449
58.4419
58.4388
58.4358
58.4327
58.4297
58.4266
58.4236
58.4206
58.4175
58.4145
58.4114
58.4084
58.4053
58.4023
58.3992
58.3962
58.3932
58.3901
58.3871
58.384
58.381
58.378
58.3749
58.3719
58.3689
58.3658
58.3628
58.3597
58.3567
58.3537
58.3506
58.3476
58.3446
58.3415
58.3385
58.3355
58.3324
58.3294
58.3264
58.3233
58.3203
58.3173
58.3142
58.3112
58.3082
58.3052
58.3021
58.2991
58.2961
58.293
58.29
58.287
58.284
58.2809
58.2779
58.2749
58.2719
58.2688
58.2658
58.2628
58.2598
58.2567
58.2537
58.2507
58.2477
58.2446
58.2416
58.2386
58.2356
58.2326
58.2295
58.2265
58.2235
58.2205
58.2175
58.2145
58.2114
58.2084
58.2054
58.2024
58.1994
58.1964
58.1933
58.1903
58.1873
58.1843
58.1813
58.1783
58.1753
58.1723
58.1692
58.1662
58.1632
58.1602
58.1572
58.1542
58.1512
58.1482
58.1452
58.1422
58.1392
58.1361
58.1331
58.1301
58.1271
58.1241
58.1211
58.1181
58.1151
58.1121
58.1091
58.1061
58.1031
58.1001
58.0971
58.0941
58.0911
58.0881
58.0851
58.0821
58.0791
58.0761
58.0731
58.0701
58.0671
58.0641
58.0611
58.0581
58.0551
58.0521
58.0491
58.0461
58.0431
58.0401
58.0371
58.0342
58.0312
58.0282
58.0252
58.0222
58.0192
58.0162
58.0132
58.0102
58.0072
58.0042
58.0013
57.9983
57.9953
57.9923
57.9893
57.9863
57.9833
57.9803
57.9774
57.9744
57.9714
57.9684
57.9654
57.9624
57.9595
57.9565
57.9535
57.9505
57.9475
57.9445
57.9416
57.9386
57.9356
57.9326
57.9296
57.9267
57.9237
57.9207
57.9177
57.9148
57.9118
57.9088
57.9058
57.9029
57.8999
57.8969
57.8939
57.891
57.888
57.885
57.882
57.8791
57.8761
57.8731
57.8701
57.8672
57.8642
57.8612
57.8583
57.8553
57.8523
57.8494
57.8464
57.8434
57.8405
57.8375
57.8345
57.8316
57.8286
57.8256
57.8227
57.8197
57.8167
57.8138
57.8108
57.8078
57.8049
57.8019
57.799
57.796
57.793
57.7901
57.7871
57.7842
57.7812
57.7782
57.7753
57.7723
57.7694
57.7664
57.7635
57.7605
57.7575
57.7546
57.7516
57.7487
57.7457
57.7428
57.7398
57.7369
57.7339
57.731
57.728
57.725
57.7221
57.7191
57.7162
57.7132
57.7103
57.7073
57.7044
57.7014
57.6985
57.6956
57.6926
57.6897
57.6867
57.6838
57.6808
57.6779
57.6749
57.672
57.669
57.6661
57.6632
57.6602
57.6573
57.6543
57.6514
57.6484
57.6455
57.6426
57.6396
57.6367
57.6337
57.6308
57.6279
57.6249
57.622
57.6191
57.6161
57.6132
57.6102
57.6073
57.6044
57.6014
57.5985
57.5956
57.5926
57.5897
57.5868
57.5838
57.5809
57.578
57.575
57.5721
57.5692
57.5662
57.5633
57.5604
57.5575
57.5545
57.5516
57.5487
57.5457
57.5428
57.5399
57.537
57.534
57.5311
57.5282
57.5253
57.5223
57.5194
57.5165
57.5136
57.5106
57.5077
57.5048
57.5019
57.499
57.496
57.4931
57.4902
57.4873
57.4844
57.4814
57.4785
57.4756
57.4727
57.4698
57.4669
57.4639
57.461
57.4581
57.4552
57.4523
57.4494
57.4464
57.4435
57.4406
57.4377
57.4348
57.4319
57.429
57.4261
57.4232
57.4202
57.4173
57.4144
57.4115
57.4086
57.4057
57.4028
57.3999
57.397
57.3941
57.3912
57.3883
57.3853
57.3824
57.3795
57.3766
57.3737
57.3708
57.3679
57.365
57.3621
57.3592
57.3563
57.3534
57.3505
57.3476
57.3447
57.3418
57.3389
57.336
57.3331
57.3302
57.3273
57.3244
57.3215
57.3186
57.3157
57.3128
57.3099
57.307
57.3041
57.3012
57.2984
57.2955
57.2926
57.2897
57.2868
57.2839
57.281
57.2781
57.2752
57.2723
57.2694
57.2665
57.2637
57.2608
57.2579
57.255
57.2521
57.2492
57.2463
57.2434
57.2406
57.2377
57.2348
57.2319
57.229
57.2261
57.2232
57.2204
57.2175
57.2146
57.2117
57.2088
57.206
57.2031
57.2002
57.1973
57.1944
57.1916
57.1887
57.1858
57.1829
57.18
57.1772
57.1743
57.1714
57.1685
57.1657
57.1628
57.1599
57.157
57.1542
57.1513
57.1484
57.1455
57.1427
57.1398
57.1369
57.134
57.1312
57.1283
57.1254
57.1226
57.1197
57.1168
57.114
57.1111
57.1082
57.1054
57.1025
57.0996
57.0968
57.0939
57.091
57.0882
57.0853
57.0824
57.0796
57.0767
57.0738
57.071
57.0681
57.0652
57.0624
57.0595
57.0567
57.0538
57.0509
57.0481
57.0452
57.0424
57.0395
57.0366
57.0338
57.0309
57.0281
57.0252
57.0224
57.0195
57.0166
57.0138
57.0109
57.0081
57.0052
57.0024
56.9995
56.9967
56.9938
56.991
56.9881
56.9853
56.9824
56.9796
56.9767
56.9739
56.971
56.9682
56.9653
56.9625
56.9596
56.9568
56.9539
56.9511
56.9482
56.9454
56.9425
56.9397
56.9369
56.934
56.9312
56.9283
56.9255
56.9226
56.9198
56.9169
56.9141
56.9113
56.9084
56.9056
56.9027
56.8999
56.8971
56.8942
56.8914
56.8886
56.8857
56.8829
56.88
56.8772
56.8744
56.8715
56.8687
56.8659
56.863
56.8602
56.8574
56.8545
56.8517
56.8489
56.846
56.8432
56.8404
56.8375
56.8347
56.8319
56.829
56.8262
56.8234
56.8206
56.8177
56.8149
56.8121
56.8092
56.8064
56.8036
56.8008
56.7979
56.7951
56.7923
56.7895
56.7866
56.7838
56.781
56.7782
56.7753
56.7725
56.7697
56.7669
56.7641
56.7612
56.7584
56.7556
56.7528
56.75
56.7471
56.7443
56.7415
56.7387
56.7359
56.7331
56.7302
56.7274
56.7246
56.7218
56.719
56.7162
56.7133
56.7105
56.7077
56.7049
56.7021
56.6993
56.6965
56.6937
56.6909
56.688
56.6852
56.6824
56.6796
56.6768
56.674
56.6712
56.6684
56.6656
56.6628
56.66
56.6571
56.6543
56.6515
56.6487
56.6459
56.6431
56.6403
56.6375
56.6347
56.6319
56.6291
56.6263
56.6235
56.6207
56.6179
56.6151
56.6123
56.6095
56.6067
56.6039
56.6011
56.5983
56.5955
56.5927
56.5899
56.5871
56.5843
56.5815
56.5787
56.5759
56.5731
56.5703
56.5676
56.5648
56.562
56.5592
56.5564
56.5536
56.5508
56.548
56.5452
56.5424
56.5396
56.5368
56.5341
56.5313
56.5285
56.5257
56.5229
56.5201
56.5173
56.5145
56.5118
56.509
56.5062
56.5034
56.5006
56.4978
56.495
56.4923
56.4895
56.4867
56.4839
56.4811
56.4783
56.4756
56.4728
56.47
56.4672
56.4644
56.4617
56.4589
56.4561
56.4533
56.4506
56.4478
56.445
56.4422
56.4394
56.4367
56.4339
56.4311
56.4283
56.4256
56.4228
56.42
56.4173
56.4145
56.4117
56.4089
56.4062
56.4034
56.4006
56.3978
56.3951
56.3923
56.3895
56.3868
56.384
56.3812
56.3785
56.3757
56.3729
56.3702
56.3674
56.3646
56.3619
56.3591
56.3563
56.3536
56.3508
56.348
56.3453
56.3425
56.3398
56.337
56.3342
56.3315
56.3287
56.326
56.3232
56.3204
56.3177
56.3149
56.3122
56.3094
56.3066
56.3039
56.3011
56.2984
56.2956
56.2929
56.2901
56.2873
56.2846
56.2818
56.2791
56.2763
56.2736
56.2708
56.2681
56.2653
56.2626
56.2598
56.2571
56.2543
56.2516
56.2488
56.2461
56.2433
56.2406
56.2378
56.2351
56.2323
56.2296
56.2268
56.2241
56.2213
56.2186
56.2158
56.2131
56.2104
56.2076
56.2049
56.2021
56.1994
56.1966
56.1939
56.1912
56.1884
56.1857
56.1829
56.1802
56.1774
56.1747
56.172
56.1692
56.1665
56.1638
56.161
56.1583
56.1555
56.1528
56.1501
56.1473
56.1446
56.1419
56.1391
56.1364
56.1337
56.1309
56.1282
56.1255
56.1227
56.12
56.1173
56.1145
56.1118
56.1091
56.1063
56.1036
56.1009
56.0982
56.0954
56.0927
56.09
56.0872
56.0845
56.0818
56.0791
56.0763
56.0736
56.0709
56.0682
56.0654
56.0627
56.06
56.0573
56.0545
56.0518
56.0491
56.0464
56.0437
56.0409
56.0382
56.0355
56.0328
56.0301
56.0273
56.0246
56.0219
56.0192
56.0165
56.0138
56.011
56.0083
56.0056
56.0029
56.0002
55.9975
55.9947
55.992
55.9893
55.9866
55.9839
55.9812
55.9785
55.9758
55.973
55.9703
55.9676
55.9649
55.9622
55.9595
55.9568
55.9541
55.9514
55.9487
55.9459
55.9432
55.9405
55.9378
55.9351
55.9324
55.9297
55.927
55.9243
55.9216
55.9189
55.9162
55.9135
55.9108
55.9081
55.9054
55.9027
55.9
55.8973
55.8946
55.8919
55.8892
55.8865
55.8838
55.8811
55.8784
55.8757
55.873
55.8703
55.8676
55.8649
55.8622
55.8595
55.8568
55.8541
55.8514
55.8487
55.846
55.8433
55.8406
55.838
55.8353
55.8326
55.8299
55.8272
55.8245
55.8218
55.8191
55.8164
55.8137
55.811
55.8084
55.8057
55.803
55.8003
55.7976
55.7949
55.7922
55.7896
55.7869
55.7842
55.7815
55.7788
55.7761
55.7734
55.7708
55.7681
55.7654
55.7627
55.76
55.7574
55.7547
55.752
55.7493
55.7466
55.744
55.7413
55.7386
55.7359
55.7332
55.7306
55.7279
55.7252
55.7225
55.7199
55.7172
55.7145
55.7118
55.7092
55.7065
55.7038
55.7011
55.6985
55.6958
55.6931
55.6904
55.6878
55.6851
55.6824
55.6798
55.6771
55.6744
55.6718
55.6691
55.6664
55.6638
55.6611
55.6584
55.6557
55.6531
55.6504
55.6478
55.6451
55.6424
55.6398
55.6371
55.6344
55.6318
55.6291
55.6264
55.6238
55.6211
55.6185
55.6158
55.6131
55.6105
55.6078
55.6052
55.6025
55.5998
55.5972
55.5945
55.5919
55.5892
55.5865
55.5839
55.5812
55.5786
55.5759
55.5733
55.5706
55.568
55.5653
55.5626
55.56
55.5573
55.5547
55.552
55.5494
55.5467
55.5441
55.5414
55.5388
55.5361
55.5335
55.5308
55.5282
55.5255
55.5229
55.5202
55.5176
55.5149
55.5123
55.5096
55.507
55.5044
55.5017
55.4991
55.4964
55.4938
55.4911
55.4885
55.4859
55.4832
55.4806
55.4779
55.4753
55.4726
55.47
55.4674
55.4647
55.4621
55.4594
55.4568
55.4542
55.4515
55.4489
55.4463
55.4436
55.441
55.4383
55.4357
55.4331
55.4304
55.4278
55.4252
55.4225
55.4199
55.4173
55.4146
55.412
55.4094
55.4067
55.4041
55.4015
55.3988
55.3962
55.3936
55.391
55.3883
55.3857
55.3831
55.3804
55.3778
55.3752
55.3726
55.3699
55.3673
55.3647
55.3621
55.3594
55.3568
55.3542
55.3516
55.3489
55.3463
55.3437
55.3411
55.3384
55.3358
55.3332
55.3306
55.328
55.3253
55.3227
55.3201
55.3175
55.3149
55.3122
55.3096
55.307
55.3044
55.3018
55.2992
55.2965
55.2939
55.2913
55.2887
55.2861
55.2835
55.2809
55.2782
55.2756
55.273
55.2704
55.2678
55.2652
55.2626
55.26
55.2573
55.2547
55.2521
55.2495
55.2469
55.2443
55.2417
55.2391
55.2365
55.2339
55.2313
55.2287
55.2261
55.2234
55.2208
55.2182
55.2156
55.213
55.2104
55.2078
55.2052
55.2026
55.2
55.1974
55.1948
55.1922
55.1896
55.187
55.1844
55.1818
55.1792
55.1766
55.174
55.1714
55.1688
55.1662
55.1636
55.161
55.1584
55.1558
55.1532
55.1506
55.148
55.1454
55.1429
55.1403
55.1377
55.1351
55.1325
55.1299
55.1273
55.1247
55.1221
55.1195
55.1169
55.1143
55.1118
55.1092
55.1066
55.104
55.1014
55.0988
55.0962
55.0936
55.0911
55.0885
55.0859
55.0833
55.0807
55.0781
55.0755
55.073
55.0704
55.0678
55.0652
55.0626
55.06
55.0575
55.0549
55.0523
55.0497
55.0471
55.0446
55.042
55.0394
55.0368
55.0342
55.0317
55.0291
55.0265
55.0239
55.0213
55.0188
55.0162
55.0136
55.011
55.0085
55.0059
55.0033
55.0007
54.9982
54.9956
54.993
54.9905
54.9879
54.9853
54.9827
54.9802
54.9776
54.975
54.9725
54.9699
54.9673
54.9648
54.9622
54.9596
54.957
54.9545
54.9519
54.9493
54.9468
54.9442
54.9417
54.9391
54.9365
54.934
54.9314
54.9288
54.9263
54.9237
54.9211
54.9186
54.916
54.9135
54.9109
54.9083
54.9058
54.9032
54.9007
54.8981
54.8955
54.893
54.8904
54.8879
54.8853
54.8828
54.8802
54.8776
54.8751
54.8725
54.87
54.8674
54.8649
54.8623
54.8598
54.8572
54.8546
54.8521
54.8495
54.847
54.8444
54.8419
54.8393
54.8368
54.8342
54.8317
54.8291
54.8266
54.824
54.8215
54.8189
54.8164
54.8139
54.8113
54.8088
54.8062
54.8037
54.8011
54.7986
54.796
54.7935
54.7909
54.7884
54.7859
54.7833
54.7808
54.7782
54.7757
54.7732
54.7706
54.7681
54.7655
54.763
54.7605
54.7579
54.7554
54.7528
54.7503
54.7478
54.7452
54.7427
54.7402
54.7376
54.7351
54.7325
54.73
54.7275
54.7249
54.7224
54.7199
54.7173
54.7148
54.7123
54.7097
54.7072
54.7047
54.7022
54.6996
54.6971
54.6946
54.692
54.6895
54.687
54.6844
54.6819
54.6794
54.6769
54.6743
54.6718
54.6693
54.6668
54.6642
54.6617
54.6592
54.6567
54.6541
54.6516
54.6491
54.6466
54.644
54.6415
54.639
54.6365
54.634
54.6314
54.6289
54.6264
54.6239
54.6214
54.6188
54.6163
54.6138
54.6113
54.6088
54.6062
54.6037
54.6012
54.5987
54.5962
54.5937
54.5912
54.5886
54.5861
54.5836
54.5811
54.5786
54.5761
54.5736
54.5711
54.5685
54.566
54.5635
54.561
54.5585
54.556
54.5535
54.551
54.5485
54.546
54.5434
54.5409
54.5384
54.5359
54.5334
54.5309
54.5284
54.5259
54.5234
54.5209
54.5184
54.5159
54.5134
54.5109
54.5084
54.5059
54.5034
54.5009
54.4984
54.4959
54.4934
54.4909
54.4884
54.4859
54.4834
54.4809
54.4784
54.4759
54.4734
54.4709
54.4684
54.4659
54.4634
54.4609
54.4584
54.4559
54.4534
54.4509
54.4484
54.4459
54.4434
54.4409
54.4384
54.4359
54.4335
54.431
54.4285
54.426
54.4235
54.421
54.4185
54.416
54.4135
54.411
54.4086
54.4061
54.4036
54.4011
54.3986
54.3961
54.3936
54.3912
54.3887
54.3862
54.3837
54.3812
54.3787
54.3762
54.3738
54.3713
54.3688
54.3663
54.3638
54.3614
54.3589
54.3564
54.3539
54.3514
54.349
54.3465
54.344
54.3415
54.339
54.3366
54.3341
54.3316
54.3291
54.3267
54.3242
54.3217
54.3192
54.3167
54.3143
54.3118
54.3093
54.3069
54.3044
54.3019
54.2994
54.297
54.2945
54.292
54.2895
54.2871
54.2846
54.2821
54.2797
54.2772
54.2747
54.2723
54.2698
54.2673
54.2649
54.2624
54.2599
54.2575
54.255
54.2525
54.2501
54.2476
54.2451
54.2427
54.2402
54.2377
54.2353
54.2328
54.2304
54.2279
54.2254
54.223
54.2205
54.2181
54.2156
54.2131
54.2107
54.2082
54.2058
54.2033
54.2008
54.1984
54.1959
54.1935
54.191
54.1886
54.1861
54.1836
54.1812
54.1787
54.1763
54.1738
54.1714
54.1689
54.1665
54.164
54.1616
54.1591
54.1567
54.1542
54.1518
54.1493
54.1469
54.1444
54.142
54.1395
54.1371
54.1346
54.1322
54.1297
54.1273
54.1248
54.1224
54.1199
54.1175
54.115
54.1126
54.1102
54.1077
54.1053
54.1028
54.1004
54.0979
54.0955
54.093
54.0906
54.0882
54.0857
54.0833
54.0808
54.0784
54.076
54.0735
54.0711
54.0686
54.0662
54.0638
54.0613
54.0589
54.0565
54.054
54.0516
54.0492
54.0467
54.0443
54.0418
54.0394
54.037
54.0345
54.0321
54.0297
54.0272
54.0248
54.0224
54.02
54.0175
54.0151
54.0127
54.0102
54.0078
54.0054
54.0029
54.0005
53.9981
53.9957
53.9932
53.9908
53.9884
53.986
53.9835
53.9811
53.9787
53.9763
53.9738
53.9714
53.969
53.9666
53.9641
53.9617
53.9593
53.9569
53.9544
53.952
53.9496
53.9472
53.9448
53.9423
53.9399
53.9375
53.9351
53.9327
53.9302
53.9278
53.9254
53.923
53.9206
53.9182
53.9157
53.9133
53.9109
53.9085
53.9061
53.9037
53.9013
53.8988
53.8964
53.894
53.8916
53.8892
53.8868
53.8844
53.882
53.8796
53.8771
53.8747
53.8723
53.8699
53.8675
53.8651
53.8627
53.8603
53.8579
53.8555
53.8531
53.8507
53.8482
53.8458
53.8434
53.841
53.8386
53.8362
53.8338
53.8314
53.829
53.8266
53.8242
53.8218
53.8194
53.817
53.8146
53.8122
53.8098
53.8074
53.805
53.8026
53.8002
53.7978
53.7954
53.793
53.7906
53.7882
53.7858
53.7834
53.781
53.7786
53.7762
53.7738
53.7714
53.7691
53.7667
53.7643
53.7619
53.7595
53.7571
53.7547
53.7523
53.7499
53.7475
53.7451
53.7427
53.7404
53.738
53.7356
53.7332
53.7308
53.7284
53.726
53.7236
53.7212
53.7189
53.7165
53.7141
53.7117
53.7093
53.7069
53.7045
53.7022
53.6998
53.6974
53.695
53.6926
53.6902
53.6879
53.6855
53.6831
53.6807
53.6783
53.676
53.6736
53.6712
53.6688
53.6664
53.6641
53.6617
53.6593
53.6569
53.6546
53.6522
53.6498
53.6474
53.645
53.6427
53.6403
53.6379
53.6355
53.6332
53.6308
53.6284
53.6261
53.6237
53.6213
53.6189
53.6166
53.6142
53.6118
53.6095
53.6071
53.6047
53.6023
53.6
53.5976
53.5952
53.5929
53.5905
53.5881
53.5858
53.5834
53.581
53.5787
53.5763
53.5739
53.5716
53.5692
53.5668
53.5645
53.5621
53.5598
53.5574
53.555
53.5527
53.5503
53.548
53.5456
53.5432
53.5409
53.5385
53.5361
53.5338
53.5314
53.5291
53.5267
53.5244
53.522
53.5196
53.5173
53.5149
53.5126
53.5102
53.5079
53.5055
53.5032
53.5008
53.4984
53.4961
53.4937
53.4914
53.489
53.4867
53.4843
53.482
53.4796
53.4773
53.4749
53.4726
53.4702
53.4679
53.4655
53.4632
53.4608
53.4585
53.4561
53.4538
53.4514
53.4491
53.4468
53.4444
53.4421
53.4397
53.4374
53.435
53.4327
53.4303
53.428
53.4257
53.4233
53.421
53.4186
53.4163
53.4139
53.4116
53.4093
53.4069
53.4046
53.4022
53.3999
53.3976
53.3952
53.3929
53.3906
53.3882
53.3859
53.3835
53.3812
53.3789
53.3765
53.3742
53.3719
53.3695
53.3672
53.3649
53.3625
53.3602
53.3579
53.3555
53.3532
53.3509
53.3485
53.3462
53.3439
53.3416
53.3392
53.3369
53.3346
53.3322
53.3299
53.3276
53.3252
53.3229
53.3206
53.3183
53.3159
53.3136
53.3113
53.309
53.3066
53.3043
53.302
53.2997
53.2973
53.295
53.2927
53.2904
53.2881
53.2857
53.2834
53.2811
53.2788
53.2764
53.2741
53.2718
53.2695
53.2672
53.2649
53.2625
53.2602
53.2579
53.2556
53.2533
53.2509
53.2486
53.2463
53.244
53.2417
53.2394
53.2371
53.2347
53.2324
53.2301
53.2278
53.2255
53.2232
53.2209
53.2186
53.2162
53.2139
53.2116
53.2093
53.207
53.2047
53.2024
53.2001
53.1978
53.1955
53.1932
53.1908
53.1885
53.1862
53.1839
53.1816
53.1793
53.177
53.1747
53.1724
53.1701
53.1678
53.1655
53.1632
53.1609
53.1586
53.1563
53.154
53.1517
53.1494
53.1471
53.1448
53.1425
53.1402
53.1379
53.1356
53.1333
53.131
53.1287
53.1264
53.1241
53.1218
53.1195
53.1172
53.1149
53.1126
53.1103
53.108
53.1057
53.1034
53.1011
53.0988
53.0965
53.0942
53.092
53.0897
53.0874
53.0851
53.0828
53.0805
53.0782
53.0759
53.0736
53.0713
53.0691
53.0668
53.0645
53.0622
53.0599
53.0576
53.0553
53.053
53.0508
53.0485
53.0462
53.0439
53.0416
53.0393
53.037
53.0348
53.0325
53.0302
53.0279
53.0256
53.0233
53.0211
53.0188
53.0165
53.0142
53.0119
53.0097
53.0074
53.0051
53.0028
53.0005
52.9983
52.996
52.9937
52.9914
52.9892
52.9869
52.9846
52.9823
52.9801
52.9778
52.9755
52.9732
52.971
52.9687
52.9664
52.9641
52.9619
52.9596
52.9573
52.9551
52.9528
52.9505
52.9482
52.946
52.9437
52.9414
52.9392
52.9369
52.9346
52.9324
52.9301
52.9278
52.9256
52.9233
52.921
52.9188
52.9165
52.9142
52.912
52.9097
52.9074
52.9052
52.9029
52.9006
52.8984
52.8961
52.8939
52.8916
52.8893
52.8871
52.8848
52.8826
52.8803
52.878
52.8758
52.8735
52.8713
52.869
52.8667
52.8645
52.8622
52.86
52.8577
52.8555
52.8532
52.8509
52.8487
52.8464
52.8442
52.8419
52.8397
52.8374
52.8352
52.8329
52.8307
52.8284
52.8262
52.8239
52.8217
52.8194
52.8172
52.8149
52.8127
52.8104
52.8082
52.8059
52.8037
52.8014
52.7992
52.7969
52.7947
52.7924
52.7902
52.7879
52.7857
52.7834
52.7812
52.7789
52.7767
52.7745
52.7722
52.77
52.7677
52.7655
52.7632
52.761
52.7588
52.7565
52.7543
52.752
52.7498
52.7476
52.7453
52.7431
52.7408
52.7386
52.7364
52.7341
52.7319
52.7297
52.7274
52.7252
52.7229
52.7207
52.7185
52.7162
52.714
52.7118
52.7095
52.7073
52.7051
52.7028
52.7006
52.6984
52.6961
52.6939
52.6917
52.6895
52.6872
52.685
52.6828
52.6805
52.6783
52.6761
52.6738
52.6716
52.6694
52.6672
52.6649
52.6627
52.6605
52.6583
52.656
52.6538
52.6516
52.6494
52.6471
52.6449
52.6427
52.6405
52.6382
52.636
52.6338
52.6316
52.6294
52.6271
52.6249
52.6227
52.6205
52.6183
52.616
52.6138
52.6116
52.6094
52.6072
52.6049
52.6027
52.6005
52.5983
52.5961
52.5939
52.5916
52.5894
52.5872
52.585
52.5828
52.5806
52.5784
52.5761
52.5739
52.5717
52.5695
52.5673
52.5651
52.5629
52.5607
52.5585
52.5562
52.554
52.5518
52.5496
52.5474
52.5452
52.543
52.5408
52.5386
52.5364
52.5342
52.532
52.5297
52.5275
52.5253
52.5231
52.5209
52.5187
52.5165
52.5143
52.5121
52.5099
52.5077
52.5055
52.5033
52.5011
52.4989
52.4967
52.4945
52.4923
52.4901
52.4879
52.4857
52.4835
52.4813
52.4791
52.4769
52.4747
52.4725
52.4703
52.4681
52.4659
52.4637
52.4615
52.4593
52.4571
52.455
52.4528
52.4506
52.4484
52.4462
52.444
52.4418
52.4396
52.4374
52.4352
52.433
52.4308
52.4286
52.4265
52.4243
52.4221
52.4199
52.4177
52.4155
52.4133
52.4111
52.409
52.4068
52.4046
52.4024
52.4002
52.398
52.3958
52.3937
52.3915
52.3893
52.3871
52.3849
52.3827
52.3806
52.3784
52.3762
52.374
52.3718
52.3696
52.3675
52.3653
52.3631
52.3609
52.3587
52.3566
52.3544
52.3522
52.35
52.3479
52.3457
52.3435
52.3413
52.3391
52.337
52.3348
52.3326
52.3304
52.3283
52.3261
52.3239
52.3217
52.3196
52.3174
52.3152
52.3131
52.3109
52.3087
52.3065
52.3044
52.3022
52.3
52.2979
52.2957
52.2935
52.2914
52.2892
52.287
52.2849
52.2827
52.2805
52.2783
52.2762
52.274
52.2719
52.2697
52.2675
52.2654
52.2632
52.261
52.2589
52.2567
52.2545
52.2524
52.2502
52.2481
52.2459
52.2437
52.2416
52.2394
52.2372
52.2351
52.2329
52.2308
52.2286
52.2265
52.2243
52.2221
52.22
52.2178
52.2157
52.2135
52.2114
52.2092
52.207
52.2049
52.2027
52.2006
52.1984
52.1963
52.1941
52.192
52.1898
52.1877
52.1855
52.1834
52.1812
52.1791
52.1769
52.1748
52.1726
52.1705
52.1683
52.1662
52.164
52.1619
52.1597
52.1576
52.1554
52.1533
52.1511
52.149
52.1468
52.1447
52.1425
52.1404
52.1382
52.1361
52.134
52.1318
52.1297
52.1275
52.1254
52.1232
52.1211
52.119
52.1168
52.1147
52.1125
52.1104
52.1083
52.1061
52.104
52.1018
52.0997
52.0976
52.0954
52.0933
52.0912
52.089
52.0869
52.0847
52.0826
52.0805
52.0783
52.0762
52.0741
52.0719
52.0698
52.0677
52.0655
52.0634
52.0613
52.0591
52.057
52.0549
52.0527
52.0506
52.0485
52.0463
52.0442
52.0421
52.04
52.0378
52.0357
52.0336
52.0314
52.0293
52.0272
52.0251
52.0229
52.0208
52.0187
52.0166
52.0144
52.0123
52.0102
52.0081
52.0059
52.0038
52.0017
51.9996
51.9975
51.9953
51.9932
51.9911
51.989
51.9868
51.9847
51.9826
51.9805
51.9784
51.9762
51.9741
51.972
51.9699
51.9678