# vtk DataFile Version 2.0
vtk output
ASCII
DATASET STRUCTURED_GRID
DIMENSIONS 50 10 30
POINTS 15000 float
0 0 0
1 0 0
2 0 0
3 0 0
4 0 0
5 0 0
6 0 0
7 0 0
8 0 0
9 0 0
10 0 0
11 0 0
12 0 0
13 0 0
14 0 0
15 0 0
16 0 0
17 0 0
18 0 0
19 0 0
20 0 0
21 0 0
22 0 0
23 0 0
24 0 0
25 0 0
26 0 0
27 0 0
28 0 0
29 0 0
30 0 0
31 0 0
32 0 0
33 0 0
34 0 0
35 0 0
36 0 0
37 0 0
38 0 0
39 0 0
40 0 0
41 0 0
42 0 0
43 0 0
44 0 0
45 0 0
46 0 0
47 0 0
48 0 0
49 0 0
0 1 0
1 1 0
2 1 0
3 1 0
4 1 0
5 1 0
6 1 0
7 1 0
8 1 0
9 1 0
10 1 0
11 1 0
12 1 0
13 1 0
14 1 0
15 1 0
16 1 0
17 1 0
18 1 0
19 1 0
20 1 0
21 1 0
22 1 0
23 1 0
24 1 0
25 1 0
26 1 0
27 1 0
28 1 0
29 1 0
30 1 0
31 1 0
32 1 0
33 1 0
34 1 0
35 1 0
36 1 0
37 1 0
38 1 0
39 1 0
40 1 0
41 1 0
42 1 0
43 1 0
44 1 0
45 1 0
46 1 0
47 1 0
48 1 0
49 1 0
0 2 0
1 2 0
2 2 0
3 2 0
4 2 0
5 2 0
6 2 0
7 2 0
8 2 0
9 2 0
10 2 0
11 2 0
12 2 0
13 2 0
14 2 0
15 2 0
16 2 0
17 2 0
18 2 0
19 2 0
20 2 0
21 2 0
22 2 0
23 2 0
24 2 0
25 2 0
26 2 0
27 2 0
28 2 0
29 2 0
30 2 0
31 2 0
32 2 0
33 2 0
34 2 0
35 2 0
36 2 0
37 2 0
38 2 0
39 2 0
40 2 0
41 2 0
42 2 0
43 2 0
44 2 0
45 2 0
46 2 0
47 2 0
48 2 0
49 2 0
0 3 0
1 3 0
2 3 0
3 3 0
4 3 0
5 3 0
6 3 0
7 3 0
8 3 0
9 3 0
10 3 0
11 3 0
12 3 0
13 3 0
14 3 0
15 3 0
16 3 0
17 3 0
18 3 0
19 3 0
20 3 0
21 3 0
22 3 0
23 3 0
24 3 0
25 3 0
26 3 0
27 3 0
28 3 0
29 3 0
30 3 0
31 3 0
32 3 0
33 3 0
34 3 0
35 3 0
36 3 0
37 3 0
38 3 0
39 3 0
40 3 0
41 3 0
42 3 0
43 3 0
44 3 0
45 3 0
46 3 0
47 3 0
48 3 0
49 3 0
0 4 0
1 4 0
2 4 0
3 4 0
4 4 0
5 4 0
6 4 0
7 4 0
8 4 0
9 4 0
10 4 0
11 4 0
12 4 0
13 4 0
14 4 0
15 4 0
16 4 0
17 4 0
18 4 0
19 4 0
20 4 0
21 4 0
22 4 0
23 4 0
24 4 0
25 4 0
26 4 0
27 4 0
28 4 0
29 4 0
30 4 0
31 4 0
32 4 0
33 4 0
34 4 0
35 4 0
36 4 0
37 4 0
38 4 0
39 4 0
40 4 0
41 4 0
42 4 0
43 4 0
44 4 0
45 4 0
46 4 0
47 4 0
48 4 0
49 4 0
0 5 0
1 5 0
2 5 0
3 5 0
4 5 0
5 5 0
6 5 0
7 5 0
8 5 0
9 5 0
10 5 0
11 5 0
12 5 0
13 5 0
14 5 0
15 5 0
16 5 0
17 5 0
18 5 0
19 5 0
20 5 0
21 5 0
22 5 0
23 5 0
24 5 0
25 5 0
26 5 0
27 5 0
28 5 0
29 5 0
30 5 0
31 5 0
32 5 0
33 5 0
34 5 0
35 5 0
36 5 0
37 5 0
38 5 0
39 5 0
40 5 0
41 5 0
42 5 0
43 5 0
44 5 0
45 5 0
46 5 0
47 5 0
48 5 0
49 5 0
0 6 0
1 6 0
2 6 0
3 6 0
4 6 0
5 6 0
6 6 0
7 6 0
8 6 0
9 6 0
10 6 0
11 6 0
12 6 0
13 6 0
14 6 0
15 6 0
16 6 0
17 6 0
18 6 0
19 6 0
20 6 0
21 6 0
22 6 0
23 6 0
24 6 0
25 6 0
26 6 0
27 6 0
28 6 0
29 6 0
30 6 0
31 6 0
32 6 0
33 6 0
34 6 0
35 6 0
36 6 0
37 6 0
38 6 0
39 6 0
40 6 0
41 6 0
42 6 0
43 6 0
44 6 0
45 6 0
46 6 0
47 6 0
48 6 0
49 6 0
0 7 0
1 7 0
2 7 0
3 7 0
4 7 0
5 7 0
6 7 0
7 7 0
8 7 0
9 7 0
10 7 0
11 7 0
12 7 0
13 7 0
14 7 0
15 7 0
16 7 0
17 7 0
18 7 0
19 7 0
20 7 0
21 7 0
22 7 0
23 7 0
24 7 0
25 7 0
26 7 0
27 7 0
28 7 0
29 7 0
30 7 0
31 7 0
32 7 0
33 7 0
34 7 0
35 7 0
36 7 0
37 7 0
38 7 0
39 7 0
40 7 0
41 7 0
42 7 0
43 7 0
44 7 0
45 7 0
46 7 0
47 7 0
48 7 0
49 7 0
0 8 0
1 8 0
2 8 0
3 8 0
4 8 0
5 8 0
6 8 0
7 8 0
8 8 0
9 8 0
10 8 0
11 8 0
12 8 0
13 8 0
14 8 0
15 8 0
16 8 0
17 8 0
18 8 0
19 8 0
20 8 0
21 8 0
22 8 0
23 8 0
24 8 0
25 8 0
26 8 0
27 8 0
28 8 0
29 8 0
30 8 0
31 8 0
32 8 0
33 8 0
34 8 0
35 8 0
36 8 0
37 8 0
38 8 0
39 8 0
40 8 0
41 8 0
42 8 0
43 8 0
44 8 0
45 8 0
46 8 0
47 8 0
48 8 0
49 8 0
0 9 0
1 9 0
2 9 0
3 9 0
4 9 0
5 9 0
6 9 0
7 9 0
8 9 0
9 9 0
10 9 0
11 9 0
12 9 0
13 9 0
14 9 0
15 9 0
16 9 0
17 9 0
18 9 0
19 9 0
20 9 0
21 9 0
22 9 0
23 9 0
24 9 0
25 9 0
26 9 0
27 9 0
28 9 0
29 9 0
30 9 0
31 9 0
32 9 0
33 9 0
34 9 0
35 9 0
36 9 0
37 9 0
38 9 0
39 9 0
40 9 0
41 9 0
42 9 0
43 9 0
44 9 0
45 9 0
46 9 0
47 9 0
48 9 0
49 9 0
0 0 1
1 0 1
2 0 1
3 0 1
4 0 1
5 0 1
6 0 1
7 0 1
8 0 1
9 0 1
10 0 1
11 0 1
12 0 1
13 0 1
14 0 1
15 0 1
16 0 1
17 0 1
18 0 1
19 0 1
20 0 1
21 0 1
22 0 1
23 0 1
24 0 1
25 0 1
26 0 1
27 0 1
28 0 1
29 0 1
30 0 1
31 0 1
32 0 1
33 0 1
34 0 1
35 0 1
36 0 1
37 0 1
38 0 1
39 0 1
40 0 1
41 0 1
42 0 1
43 0 1
44 0 1
45 0 1
46 0 1
47 0 1
48 0 1
49 0 1
0 1 1
1 1 1
2 1 1
3 1 1
4 1 1
5 1 1
6 1 1
7 1 1
8 1 1
9 1 1
10 1 1
11 1 1
12 1 1
13 1 1
14 1 1
15 1 1
16 1 1
17 1 1
18 1 1
19 1 1
20 1 1
21 1 1
22 1 1
23 1 1
24 1 1
25 1 1
26 1 1
27 1 1
28 1 1
29 1 1
30 1 1
31 1 1
32 1 1
33 1 1
34 1 1
35 1 1
36 1 1
37 1 1
38 1 1
39 1 1
40 1 1
41 1 1
42 1 1
43 1 1
44 1 1
45 1 1
46 1 1
47 1 1
48 1 1
49 1 1
0 2 1
1 2 1
2 2 1
3 2 1
4 2 1
5 2 1
6 2 1
7 2 1
8 2 1
9 2 1
10 2 1
11 2 1
12 2 1
13 2 1
14 2 1
15 2 1
16 2 1
17 2 1
18 2 1
19 2 1
20 2 1
21 2 1
22 2 1
23 2 1
24 2 1
25 2 1
26 2 1
27 2 1
28 2 1
29 2 1
30 2 1
31 2 1
32 2 1
33 2 1
34 2 1
35 2 1
36 2 1
37 2 1
38 2 1
39 2 1
40 2 1
41 2 1
42 2 1
43 2 1
44 2 1
45 2 1
46 2 1
47 2 1
48 2 1
49 2 1
0 3 1
1 3 1
2 3 1
3 3 1
4 3 1
5 3 1
6 3 1
7 3 1
8 3 1
9 3 1
10 3 1
11 3 1
12 3 1
13 3 1
14 3 1
15 3 1
16 3 1
17 3 1
18 3 1
19 3 1
20 3 1
21 3 1
22 3 1
23 3 1
24 3 1
25 3 1
26 3 1
27 3 1
28 3 1
29 3 1
30 3 1
31 3 1
32 3 1
33 3 1
34 3 1
35 3 1
36 3 1
37 3 1
38 3 1
39 3 1
40 3 1
41 3 1
42 3 1
43 3 1
44 3 1
45 3 1
46 3 1
47 3 1
48 3 1
49 3 1
0 4 1
1 4 1
2 4 1
3 4 1
4 4 1
5 4 1
6 4 1
7 4 1
8 4 1
9 4 1
10 4 1
11 4 1
12 4 1
13 4 1
14 4 1
15 4 1
16 4 1
17 4 1
18 4 1
19 4 1
20 4 1
21 4 1
22 4 1
23 4 1
24 4 1
25 4 1
26 4 1
27 4 1
28 4 1
29 4 1
30 4 1
31 4 1
32 4 1
33 4 1
34 4 1
35 4 1
36 4 1
37 4 1
38 4 1
39 4 1
40 4 1
41 4 1
42 4 1
43 4 1
44 4 1
45 4 1
46 4 1
47 4 1
48 4 1
49 4 1
0 5 1
1 5 1
2 5 1
3 5 1
4 5 1
5 5 1
6 5 1
7 5 1
8 5 1
9 5 1
10 5 1
11 5 1
12 5 1
13 5 1
14 5 1
15 5 1
16 5 1
17 5 1
18 5 1
19 5 1
20 5 1
21 5 1
22 5 1
23 5 1
24 5 1
25 5 1
26 5 1
27 5 1
28 5 1
29 5 1
30 5 1
31 5 1
32 5 1
33 5 1
34 5 1
35 5 1
36 5 1
37 5 1
38 5 1
39 5 1
40 5 1
41 5 1
42 5 1
43 5 1
44 5 1
45 5 1
46 5 1
47 5 1
48 5 1
49 5 1
0 6 1
1 6 1
2 6 1
3 6 1
4 6 1
5 6 1
6 6 1
7 6 1
8 6 1
9 6 1
10 6 1
11 6 1
12 6 1
13 6 1
14 6 1
15 6 1
16 6 1
17 6 1
18 6 1
19 6 1
20 6 1
21 6 1
22 6 1
23 6 1
24 6 1
25 6 1
26 6 1
27 6 1
28 6 1
29 6 1
30 6 1
31 6 1
32 6 1
33 6 1
34 6 1
35 6 1
36 6 1
37 6 1
38 6 1
39 6 1
40 6 1
41 6 1
42 6 1
43 6 1
44 6 1
45 6 1
46 6 1
47 6 1
48 6 1
49 6 1
0 7 1
1 7 1
2 7 1
3 7 1
4 7 1
5 7 1
6 7 1
7 7 1
8 7 1
9 7 1
10 7 1
11 7 1
12 7 1
13 7 1
14 7 1
15 7 1
16 7 1
17 7 1
18 7 1
19 7 1
20 7 1
21 7 1
22 7 1
23 7 1
24 7 1
25 7 1
26 7 1
27 7 1
28 7 1
29 7 1
30 7 1
31 7 1
32 7 1
33 7 1
34 7 1
35 7 1
36 7 1
37 7 1
38 7 1
39 7 1
40 7 1
41 7 1
42 7 1
43 7 1
44 7 1
45 7 1
46 7 1
47 7 1
48 7 1
49 7 1
0 8 1
1 8 1
2 8 1
3 8 1
4 8 1
5 8 1
6 8 1
7 8 1
8 8 1
9 8 1
10 8 1
11 8 1
12 8 1
13 8 1
14 8 1
15 8 1
16 8 1
17 8 1
18 8 1
19 8 1
20 8 1
21 8 1
22 8 1
23 8 1
24 8 1
25 8 1
26 8 1
27 8 1
28 8 1
29 8 1
30 8 1
31 8 1
32 8 1
33 8 1
34 8 1
35 8 1
36 8 1
37 8 1
38 8 1
39 8 1
40 8 1
41 8 1
42 8 1
43 8 1
44 8 1
45 8 1
46 8 1
47 8 1
48 8 1
49 8 1
0 9 1
1 9 1
2 9 1
3 9 1
4 9 1
5 9 1
6 9 1
7 9 1
8 9 1
9 9 1
10 9 1
11 9 1
12 9 1
13 9 1
14 9 1
15 9 1
16 9 1
17 9 1
18 9 1
19 9 1
20 9 1
21 9 1
22 9 1
23 9 1
24 9 1
25 9 1
26 9 1
27 9 1
28 9 1
29 9 1
30 9 1
31 9 1
32 9 1
33 9 1
34 9 1
35 9 1
36 9 1
37 9 1
38 9 1
39 9 1
40 9 1
41 9 1
42 9 1
43 9 1
44 9 1
45 9 1
46 9 1
47 9 1
48 9 1
49 9 1
0 0 2
1 0 2
2 0 2
3 0 2
4 0 2
5 0 2
6 0 2
7 0 2
8 0 2
9 0 2
10 0 2
11 0 2
12 0 2
13 0 2
14 0 2
15 0 2
16 0 2
17 0 2
18 0 2
19 0 2
20 0 2
21 0 2
22 0 2
23 0 2
24 0 2
25 0 2
26 0 2
27 0 2
28 0 2
29 0 2
30 0 2
31 0 2
32 0 2
33 0 2
34 0 2
35 0 2
36 0 2
37 0 2
38 0 2
39 0 2
40 0 2
41 0 2
42 0 2
43 0 2
44 0 2
45 0 2
46 0 2
47 0 2
48 0 2
49 0 2
0 1 2
1 1 2
2 1 2
3 1 2
4 1 2
5 1 2
6 1 2
7 1 2
8 1 2
9 1 2
10 1 2
11 1 2
12 1 2
13 1 2
14 1 2
15 1 2
16 1 2
17 1 2
18 1 2
19 1 2
20 1 2
21 1 2
22 1 2
23 1 2
24 1 2
25 1 2
26 1 2
27 1 2
28 1 2
29 1 2
30 1 2
31 1 2
32 1 2
33 1 2
34 1 2
35 1 2
36 1 2
37 1 2
38 1 2
39 1 2
40 1 2
41 1 2
42 1 2
43 1 2
44 1 2
45 1 2
46 1 2
47 1 2
48 1 2
49 1 2
0 2 2
1 2 2
2 2 2
3 2 2
4 2 2
5 2 2
6 2 2
7 2 2
8 2 2
9 2 2
10 2 2
11 2 2
12 2 2
13 2 2
14 2 2
15 2 2
16 2 2
17 2 2
18 2 2
19 2 2
20 2 2
21 2 2
22 2 2
23 2 2
24 2 2
25 2 2
26 2 2
27 2 2
28 2 2
29 2 2
30 2 2
31 2 2
32 2 2
33 2 2
34 2 2
35 2 2
36 2 2
37 2 2
38 2 2
39 2 2
40 2 2
41 2 2
42 2 2
43 2 2
44 2 2
45 2 2
46 2 2
47 2 2
48 2 2
49 2 2
0 3 2
1 3 2
2 3 2
3 3 2
4 3 2
5 3 2
6 3 2
7 3 2
8 3 2
9 3 2
10 3 2
11 3 2
12 3 2
13 3 2
14 3 2
15 3 2
16 3 2
17 3 2
18 3 2
19 3 2
20 3 2
21 3 2
22 3 2
23 3 2
24 3 2
25 3 2
26 3 2
27 3 2
28 3 2
29 3 2
30 3 2
31 3 2
32 3 2
33 3 2
34 3 2
35 3 2
36 3 2
37 3 2
38 3 2
39 3 2
40 3 2
41 3 2
42 3 2
43 3 2
44 3 2
45 3 2
46 3 2
47 3 2
48 3 2
49 3 2
0 4 2
1 4 2
2 4 2
3 4 2
4 4 2
5 4 2
6 4 2
7 4 2
8 4 2
9 4 2
10 4 2
11 4 2
12 4 2
13 4 2
14 4 2
15 4 2
16 4 2
17 4 2
18 4 2
19 4 2
20 4 2
21 4 2
22 4 2
23 4 2
24 4 2
25 4 2
26 4 2
27 4 2
28 4 2
29 4 2
30 4 2
31 4 2
32 4 2
33 4 2
34 4 2
35 4 2
36 4 2
37 4 2
38 4 2
39 4 2
40 4 2
41 4 2
42 4 2
43 4 2
44 4 2
45 4 2
46 4 2
47 4 2
48 4 2
49 4 2
0 5 2
1 5 2
2 5 2
3 5 2
4 5 2
5 5 2
6 5 2
7 5 2
8 5 2
9 5 2
10 5 2
11 5 2
12 5 2
13 5 2
14 5 2
15 5 2
16 5 2
17 5 2
18 5 2
19 5 2
20 5 2
21 5 2
22 5 2
23 5 2
24 5 2
25 5 2
26 5 2
27 5 2
28 5 2
29 5 2
30 5 2
31 5 2
32 5 2
33 5 2
34 5 2
35 5 2
36 5 2
37 5 2
38 5 2
39 5 2
40 5 2
41 5 2
42 5 2
43 5 2
44 5 2
45 5 2
46 5 2
47 5 2
48 5 2
49 5 2
0 6 2
1 6 2
2 6 2
3 6 2
4 6 2
5 6 2
6 6 2
7 6 2
8 6 2
9 6 2
10 6 2
11 6 2
12 6 2
13 6 2
14 6 2
15 6 2
16 6 2
17 6 2
18 6 2
19 6 2
20 6 2
21 6 2
22 6 2
23 6 2
24 6 2
25 6 2
26 6 2
27 6 2
28 6 2
29 6 2
30 6 2
31 6 2
32 6 2
33 6 2
34 6 2
35 6 2
36 6 2
37 6 2
38 6 2
39 6 2
40 6 2
41 6 2
42 6 2
43 6 2
44 6 2
45 6 2
46 6 2
47 6 2
48 6 2
49 6 2
0 7 2
1 7 2
2 7 2
3 7 2
4 7 2
5 7 2
6 7 2
7 7 2
8 7 2
9 7 2
10 7 2
11 7 2
12 7 2
13 7 2
14 7 2
15 7 2
16 7 2
17 7 2
18 7 2
19 7 2
20 7 2
21 7 2
22 7 2
23 7 2
24 7 2
25 7 2
26 7 2
27 7 2
28 7 2
29 7 2
30 7 2
31 7 2
32 7 2
33 7 2
34 7 2
35 7 2
36 7 2
37 7 2
38 7 2
39 7 2
40 7 2
41 7 2
42 7 2
43 7 2
44 7 2
45 7 2
46 7 2
47 7 2
48 7 2
49 7 2
0 8 2
1 8 2
2 8 2
3 8 2
4 8 2
5 8 2
6 8 2
7 8 2
8 8 2
9 8 2
10 8 2
11 8 2
12 8 2
13 8 2
14 8 2
15 8 2
16 8 2
17 8 2
18 8 2
19 8 2
20 8 2
21 8 2
22 8 2
23 8 2
24 8 2
25 8 2
26 8 2
27 8 2
28 8 2
29 8 2
30 8 2
31 8 2
32 8 2
33 8 2
34 8 2
35 8 2
36 8 2
37 8 2
38 8 2
39 8 2
40 8 2
41 8 2
42 8 2
43 8 2
44 8 2
45 8 2
46 8 2
47 8 2
48 8 2
49 8 2
0 9 2
1 9 2
2 9 2
3 9 2
4 9 2
[...]
POINT_DATA 15000
SCALARS sol260 float
LOOKUP_TABLE default
58.333
58.3299
58.3269
58.3238
58.3208
58.3177
58.3147
58.3116
58.3086
58.3056
58.3025
58.2995
58.2964
58.2934
58.2903
58.2873
58.2842
58.2812
58.2782
58.2751
58.2721
58.269
58.266
58.263
58.2599
58.2569
58.2538
58.2508
58.2478
58.2447
58.2417
58.2387
58.2356
58.2326
58.2295
58.2265
58.2235
58.2204
58.2174
58.2144
58.2113
58.2083
58.2053
58.2022
58.1992
58.1962
58.1932
58.1901
58.1871
58.1841
58.181
58.178
58.175
58.172
58.1689
58.1659
58.1629
58.1598
58.1568
58.1538
58.1508
58.1477
58.1447
58.1417
58.1387
58.1357
58.1326
58.1296
58.1266
58.1236
58.1205
58.1175
58.1145
58.1115
58.1085
58.1054
58.1024
58.0994
58.0964
58.0934
58.0904
58.0873
58.0843
58.0813
58.0783
58.0753
58.0723
58.0692
58.0662
58.0632
58.0602
58.0572
58.0542
58.0512
58.0482
58.0452
58.0421
58.0391
58.0361
58.0331
58.0301
58.0271
58.0241
58.0211
58.0181
58.0151
58.0121
58.0091
58.006
58.003
58
57.997
57.994
57.991
57.988
57.985
57.982
57.979
57.976
57.973
57.97
57.967
57.964
57.961
57.958
57.955
57.952
57.949
57.946
57.943
57.94
57.937
57.934
57.931
57.928
57.925
57.9221
57.9191
57.9161
57.9131
57.9101
57.9071
57.9041
57.9011
57.8981
57.8951
57.8921
57.8891
57.8862
57.8832
57.8802
57.8772
57.8742
57.8712
57.8682
57.8652
57.8622
57.8593
57.8563
57.8533
57.8503
57.8473
57.8443
57.8414
57.8384
57.8354
57.8324
57.8294
57.8264
57.8235
57.8205
57.8175
57.8145
57.8115
57.8086
57.8056
57.8026
57.7996
57.7967
57.7937
57.7907
57.7877
57.7847
57.7818
57.7788
57.7758
57.7728
57.7699
57.7669
57.7639
57.761
57.758
57.755
57.752
57.7491
57.7461
57.7431
57.7402
57.7372
57.7342
57.7312
57.7283
57.7253
57.7223
57.7194
57.7164
57.7134
57.7105
57.7075
57.7045
57.7016
57.6986
57.6957
57.6927
57.6897
57.6868
57.6838
57.6808
57.6779
57.6749
57.672
57.669
57.666
57.6631
57.6601
57.6572
57.6542
57.6512
57.6483
57.6453
57.6424
57.6394
57.6365
57.6335
57.6305
57.6276
57.6246
57.6217
57.6187
57.6158
57.6128
57.6099
57.6069
57.604
57.601
57.5981
57.5951
57.5922
57.5892
57.5863
57.5833
57.5804
57.5774
57.5745
57.5715
57.5686
57.5656
57.5627
57.5597
57.5568
57.5538
57.5509
57.548
57.545
57.5421
57.5391
57.5362
57.5332
57.5303
57.5274
57.5244
57.5215
57.5185
57.5156
57.5127
57.5097
57.5068
57.5038
57.5009
57.498
57.495
57.4921
57.4892
57.4862
57.4833
57.4804
57.4774
57.4745
57.4716
57.4686
57.4657
57.4628
57.4598
57.4569
57.454
57.451
57.4481
57.4452
57.4422
57.4393
57.4364
57.4334
57.4305
57.4276
57.4247
57.4217
57.4188
57.4159
57.413
57.41
57.4071
57.4042
57.4013
57.3983
57.3954
57.3925
57.3896
57.3866
57.3837
57.3808
57.3779
57.375
57.372
57.3691
57.3662
57.3633
57.3604
57.3574
57.3545
57.3516
57.3487
57.3458
57.3429
57.3399
57.337
57.3341
57.3312
57.3283
57.3254
57.3225
57.3195
57.3166
57.3137
57.3108
57.3079
57.305
57.3021
57.2992
57.2962
57.2933
57.2904
57.2875
57.2846
57.2817
57.2788
57.2759
57.273
57.2701
57.2672
57.2643
57.2614
57.2585
57.2555
57.2526
57.2497
57.2468
57.2439
57.241
57.2381
57.2352
57.2323
57.2294
57.2265
57.2236
57.2207
57.2178
57.2149
57.212
57.2091
57.2062
57.2033
57.2004
57.1975
57.1946
57.1917
57.1888
57.186
57.1831
57.1802
57.1773
57.1744
57.1715
57.1686
57.1657
57.1628
57.1599
57.157
57.1541
57.1512
57.1484
57.1455
57.1426
57.1397
57.1368
57.1339
57.131
57.1281
57.1252
57.1224
57.1195
57.1166
57.1137
57.1108
57.1079
57.105
57.1022
57.0993
57.0964
57.0935
57.0906
57.0878
57.0849
57.082
57.0791
57.0762
57.0734
57.0705
57.0676
57.0647
57.0618
57.059
57.0561
57.0532
57.0503
57.0474
57.0446
57.0417
57.0388
57.0359
57.0331
57.0302
57.0273
57.0245
57.0216
57.0187
57.0158
57.013
57.0101
57.0072
57.0044
57.0015
56.9986
56.9957
56.9929
56.99
56.9871
56.9843
56.9814
56.9785
56.9757
56.9728
56.9699
56.9671
56.9642
56.9613
56.9585
56.9556
56.9528
56.9499
56.947
56.9442
56.9413
56.9384
56.9356
56.9327
56.9299
56.927
56.9241
56.9213
56.9184
56.9156
56.9127
56.9098
56.907
56.9041
56.9013
56.8984
56.8956
56.8927
56.8899
56.887
56.8841
56.8813
56.8784
56.8756
56.8727
56.8699
56.867
56.8642
56.8613
56.8585
56.8556
56.8528
56.8499
56.8471
56.8442
56.8414
56.8385
56.8357
56.8328
56.83
56.8271
56.8243
56.8215
56.8186
56.8158
56.8129
56.8101
56.8072
56.8044
56.8015
56.7987
56.7959
56.793
56.7902
56.7873
56.7845
56.7817
56.7788
56.776
56.7731
56.7703
56.7675
56.7646
56.7618
56.759
56.7561
56.7533
56.7504
56.7476
56.7448
56.7419
56.7391
56.7363
56.7334
56.7306
56.7278
56.7249
56.7221
56.7193
56.7164
56.7136
56.7108
56.708
56.7051
56.7023
56.6995
56.6966
56.6938
56.691
56.6882
56.6853
56.6825
56.6797
56.6769
56.674
56.6712
56.6684
56.6656
56.6627
56.6599
56.6571
56.6543
56.6514
56.6486
56.6458
56.643
56.6402
56.6373
56.6345
56.6317
56.6289
56.6261
56.6232
56.6204
56.6176
56.6148
56.612
56.6092
56.6063
56.6035
56.6007
56.5979
56.5951
56.5923
56.5895
56.5866
56.5838
56.581
56.5782
56.5754
56.5726
56.5698
56.567
56.5641
56.5613
56.5585
56.5557
56.5529
56.5501
56.5473
56.5445
56.5417
56.5389
56.5361
56.5333
56.5305
56.5276
56.5248
56.522
56.5192
56.5164
56.5136
56.5108
56.508
56.5052
56.5024
56.4996
56.4968
56.494
56.4912
56.4884
56.4856
56.4828
56.48
56.4772
56.4744
56.4716
56.4688
56.466
56.4632
56.4604
56.4576
56.4549
56.4521
56.4493
56.4465
56.4437
56.4409
56.4381
56.4353
56.4325
56.4297
56.4269
56.4241
56.4213
56.4185
56.4158
56.413
56.4102
56.4074
56.4046
56.4018
56.399
56.3962
56.3935
56.3907
56.3879
56.3851
56.3823
56.3795
56.3767
56.374
56.3712
56.3684
56.3656
56.3628
56.36
56.3573
56.3545
56.3517
56.3489
56.3461
56.3434
56.3406
56.3378
56.335
56.3322
56.3295
56.3267
56.3239
56.3211
56.3184
56.3156
56.3128
56.31
56.3073
56.3045
56.3017
56.2989
56.2962
56.2934
56.2906
56.2878
56.2851
56.2823
56.2795
56.2768
56.274
56.2712
56.2685
56.2657
56.2629
56.2602
56.2574
56.2546
56.2518
56.2491
56.2463
56.2435
56.2408
56.238
56.2353
56.2325
56.2297
56.227
56.2242
56.2214
56.2187
56.2159
56.2131
56.2104
56.2076
56.2049
56.2021
56.1993
56.1966
56.1938
56.1911
56.1883
56.1856
56.1828
56.18
56.1773
56.1745
56.1718
56.169
56.1663
56.1635
56.1608
56.158
56.1552
56.1525
56.1497
56.147
56.1442
56.1415
56.1387
56.136
56.1332
56.1305
56.1277
56.125
56.1222
56.1195
56.1167
56.114
56.1112
56.1085
56.1057
56.103
56.1002
56.0975
56.0948
56.092
56.0893
56.0865
56.0838
56.081
56.0783
56.0756
56.0728
56.0701
56.0673
56.0646
56.0618
56.0591
56.0564
56.0536
56.0509
56.0481
56.0454
56.0427
56.0399
56.0372
56.0345
56.0317
56.029
56.0263
56.0235
56.0208
56.018
56.0153
56.0126
56.0098
56.0071
56.0044
56.0016
55.9989
55.9962
55.9935
55.9907
55.988
55.9853
55.9825
55.9798
55.9771
55.9743
55.9716
55.9689
55.9662
55.9634
55.9607
55.958
55.9553
55.9525
55.9498
55.9471
55.9444
55.9416
55.9389
55.9362
55.9335
55.9307
55.928
55.9253
55.9226
55.9199
55.9171
55.9144
55.9117
55.909
55.9063
55.9035
55.9008
55.8981
55.8954
55.8927
55.89
55.8872
55.8845
55.8818
55.8791
55.8764
55.8737
55.8709
55.8682
55.8655
55.8628
55.8601
55.8574
55.8547
55.852
55.8492
55.8465
55.8438
55.8411
55.8384
55.8357
55.833
55.8303
55.8276
55.8249
55.8222
55.8194
55.8167
55.814
55.8113
55.8086
55.8059
55.8032
55.8005
55.7978
55.7951
55.7924
55.7897
55.787
55.7843
55.7816
55.7789
55.7762
55.7735
55.7708
55.7681
55.7654
55.7627
55.76
55.7573
55.7546
55.7519
55.7492
55.7465
55.7438
55.7411
55.7384
55.7357
55.733
55.7303
55.7276
55.7249
55.7223
55.7196
55.7169
55.7142
55.7115
55.7088
55.7061
55.7034
55.7007
55.698
55.6953
55.6927
55.69
55.6873
55.6846
55.6819
55.6792
55.6765
55.6738
55.6712
55.6685
55.6658
55.6631
55.6604
55.6577
55.655
55.6524
55.6497
55.647
55.6443
55.6416
55.639
55.6363
55.6336
55.6309
55.6282
55.6256
55.6229
55.6202
55.6175
55.6148
55.6122
55.6095
55.6068
55.6041
55.6015
55.5988
55.5961
55.5934
55.5907
55.5881
55.5854
55.5827
55.5801
55.5774
55.5747
55.572
55.5694
55.5667
55.564
55.5614
55.5587
55.556
55.5533
55.5507
55.548
55.5453
55.5427
55.54
55.5373
55.5347
55.532
55.5293
55.5267
55.524
55.5213
55.5187
55.516
55.5133
55.5107
55.508
55.5054
55.5027
55.5
55.4974
55.4947
55.492
55.4894
55.4867
55.4841
55.4814
55.4787
55.4761
55.4734
55.4708
55.4681
55.4655
55.4628
55.4601
55.4575
55.4548
55.4522
55.4495
55.4469
55.4442
55.4416
55.4389
55.4363
55.4336
55.431
55.4283
55.4256
55.423
55.4203
55.4177
55.415
55.4124
55.4097
55.4071
55.4044
55.4018
55.3992
55.3965
55.3939
55.3912
55.3886
55.3859
55.3833
55.3806
55.378
55.3753
55.3727
55.3701
55.3674
55.3648
55.3621
55.3595
55.3568
55.3542
55.3516
55.3489
55.3463
55.3436
55.341
55.3384
55.3357
55.3331
55.3304
55.3278
55.3252
55.3225
55.3199
55.3173
55.3146
55.312
55.3094
55.3067
55.3041
55.3014
55.2988
55.2962
55.2935
55.2909
55.2883
55.2857
55.283
55.2804
55.2778
55.2751
55.2725
55.2699
55.2672
55.2646
55.262
55.2594
55.2567
55.2541
55.2515
55.2488
55.2462
55.2436
55.241
55.2383
55.2357
55.2331
55.2305
55.2279
55.2252
55.2226
55.22
55.2174
55.2147
55.2121
55.2095
55.2069
55.2043
55.2016
55.199
55.1964
55.1938
55.1912
55.1885
55.1859
55.1833
55.1807
55.1781
55.1755
55.1728
55.1702
55.1676
55.165
55.1624
55.1598
55.1572
55.1545
55.1519
55.1493
55.1467
55.1441
55.1415
55.1389
55.1363
55.1337
55.131
55.1284
55.1258
55.1232
55.1206
55.118
55.1154
55.1128
55.1102
55.1076
55.105
55.1024
55.0998
55.0972
55.0945
55.0919
55.0893
55.0867
55.0841
55.0815
55.0789
55.0763
55.0737
55.0711
55.0685
55.0659
55.0633
55.0607
55.0581
55.0555
55.0529
55.0503
55.0477
55.0451
55.0425
55.0399
55.0373
55.0347
55.0322
55.0296
55.027
55.0244
55.0218
55.0192
55.0166
55.014
55.0114
55.0088
55.0062
55.0036
55.001
54.9984
54.9959
54.9933
54.9907
54.9881
54.9855
54.9829
54.9803
54.9777
54.9751
54.9726
54.97
54.9674
54.9648
54.9622
54.9596
54.957
54.9545
54.9519
54.9493
54.9467
54.9441
54.9415
54.939
54.9364
54.9338
54.9312
54.9286
54.926
54.9235
54.9209
54.9183
54.9157
54.9132
54.9106
54.908
54.9054
54.9028
54.9003
54.8977
54.8951
54.8925
54.89
54.8874
54.8848
54.8822
54.8797
54.8771
54.8745
54.8719
54.8694
54.8668
54.8642
54.8617
54.8591
54.8565
54.8539
54.8514
54.8488
54.8462
54.8437
54.8411
54.8385
54.836
54.8334
54.8308
54.8283
54.8257
54.8231
54.8206
54.818
54.8154
54.8129
54.8103
54.8077
54.8052
54.8026
54.8001
54.7975
54.7949
54.7924
54.7898
54.7873
54.7847
54.7821
54.7796
54.777
54.7745
54.7719
54.7693
54.7668
54.7642
54.7617
54.7591
54.7566
54.754
54.7514
54.7489
54.7463
54.7438
54.7412
54.7387
54.7361
54.7336
54.731
54.7285
54.7259
54.7234
54.7208
54.7183
54.7157
54.7132
54.7106
54.7081
54.7055
54.703
54.7004
54.6979
54.6953
54.6928
54.6902
54.6877
54.6851
54.6826
54.68
54.6775
54.675
54.6724
54.6699
54.6673
54.6648
54.6622
54.6597
54.6572
54.6546
54.6521
54.6495
54.647
54.6444
54.6419
54.6394
54.6368
54.6343
54.6318
54.6292
54.6267
54.6241
54.6216
54.6191
54.6165
54.614
54.6115
54.6089
54.6064
54.6039
54.6013
54.5988
54.5963
54.5937
54.5912
54.5887
54.5861
54.5836
54.5811
54.5785
54.576
54.5735
54.5709
54.5684
54.5659
54.5634
54.5608
54.5583
54.5558
54.5533
54.5507
54.5482
54.5457
54.5431
54.5406
54.5381
54.5356
54.5331
54.5305
54.528
54.5255
54.523
54.5204
54.5179
54.5154
54.5129
54.5104
54.5078
54.5053
54.5028
54.5003
54.4978
54.4952
54.4927
54.4902
54.4877
54.4852
54.4826
54.4801
54.4776
54.4751
54.4726
54.4701
54.4676
54.465
54.4625
54.46
54.4575
54.455
54.4525
54.45
54.4475
54.4449
54.4424
54.4399
54.4374
54.4349
54.4324
54.4299
54.4274
54.4249
54.4224
54.4199
54.4173
54.4148
54.4123
54.4098
54.4073
54.4048
54.4023
54.3998
54.3973
54.3948
54.3923
54.3898
54.3873
54.3848
54.3823
54.3798
54.3773
54.3748
54.3723
54.3698
54.3673
54.3648
54.3623
54.3598
54.3573
54.3548
54.3523
54.3498
54.3473
54.3448
54.3423
54.3398
54.3373
54.3348
54.3323
54.3298
54.3273
54.3248
54.3223
54.3199
54.3174
54.3149
54.3124
54.3099
54.3074
54.3049
54.3024
54.2999
54.2974
54.2949
54.2925
54.29
54.2875
54.285
54.2825
54.28
54.2775
54.275
54.2726
54.2701
54.2676
54.2651
54.2626
54.2601
54.2576
54.2552
54.2527
54.2502
54.2477
54.2452
54.2427
54.2403
54.2378
54.2353
54.2328
54.2303
54.2279
54.2254
54.2229
54.2204
54.218
54.2155
54.213
54.2105
54.208
54.2056
54.2031
54.2006
54.1981
54.1957
54.1932
54.1907
54.1882
54.1858
54.1833
54.1808
54.1784
54.1759
54.1734
54.1709
54.1685
54.166
54.1635
54.1611
54.1586
54.1561
54.1536
54.1512
54.1487
54.1462
54.1438
54.1413
54.1388
54.1364
54.1339
54.1314
54.129
54.1265
54.1241
54.1216
54.1191
54.1167
54.1142
54.1117
54.1093
54.1068
54.1043
54.1019
54.0994
54.097
54.0945
54.092
54.0896
54.0871
54.0847
54.0822
54.0798
54.0773
54.0748
54.0724
54.0699
54.0675
54.065
54.0626
54.0601
54.0577
54.0552
54.0527
54.0503
54.0478
54.0454
54.0429
54.0405
54.038
54.0356
54.0331
54.0307
54.0282
54.0258
54.0233
54.0209
54.0184
54.016
54.0135
54.0111
54.0086
54.0062
54.0037
54.0013
53.9988
53.9964
53.994
53.9915
53.9891
53.9866
53.9842
53.9817
53.9793
53.9768
53.9744
53.972
53.9695
53.9671
53.9646
53.9622
53.9598
53.9573
53.9549
53.9524
53.95
53.9476
53.9451
53.9427
53.9403
53.9378
53.9354
53.9329
53.9305
53.9281
53.9256
53.9232
53.9208
53.9183
53.9159
53.9135
53.911
53.9086
53.9062
53.9037
53.9013
53.8989
53.8964
53.894
53.8916
53.8891
53.8867
53.8843
53.8819
53.8794
53.877
53.8746
53.8721
53.8697
53.8673
53.8649
53.8624
53.86
53.8576
53.8552
53.8527
53.8503
53.8479
53.8455
53.843
53.8406
53.8382
53.8358
53.8334
53.8309
53.8285
53.8261
53.8237
53.8213
53.8188
53.8164
53.814
53.8116
53.8092
53.8067
53.8043
53.8019
53.7995
53.7971
53.7947
53.7922
53.7898
53.7874
53.785
53.7826
53.7802
53.7778
53.7753
53.7729
53.7705
53.7681
53.7657
53.7633
53.7609
53.7585
53.7561
53.7536
53.7512
53.7488
53.7464
53.744
53.7416
53.7392
53.7368
53.7344
53.732
53.7296
53.7272
53.7248
53.7224
53.7199
53.7175
53.7151
53.7127
53.7103
53.7079
53.7055
53.7031
53.7007
53.6983
53.6959
53.6935
53.6911
53.6887
53.6863
53.6839
53.6815
53.6791
53.6767
53.6743
53.6719
53.6695
53.6671
53.6647
53.6623
53.6599
53.6575
53.6552
53.6528
53.6504
53.648
53.6456
53.6432
53.6408
53.6384
53.636
53.6336
53.6312
53.6288
53.6264
53.624
53.6217
53.6193
53.6169
53.6145
53.6121
53.6097
53.6073
53.6049
53.6025
53.6002
53.5978
53.5954
53.593
53.5906
53.5882
53.5858
53.5835
53.5811
53.5787
53.5763
53.5739
53.5715
53.5692
53.5668
53.5644
53.562
53.5596
53.5573
53.5549
53.5525
53.5501
53.5477
53.5454
53.543
53.5406
53.5382
53.5358
53.5335
53.5311
53.5287
53.5263
53.524
53.5216
53.5192
53.5168
53.5145
53.5121
53.5097
53.5073
53.505
53.5026
53.5002
53.4979
53.4955
53.4931
53.4907
53.4884
53.486
53.4836
53.4813
53.4789
53.4765
53.4742
53.4718
53.4694
53.4671
53.4647
53.4623
53.46
53.4576
53.4552
53.4529
53.4505
53.4481
53.4458
53.4434
53.441
53.4387
53.4363
53.434
53.4316
53.4292
53.4269
53.4245
53.4221
53.4198
53.4174
53.4151
53.4127
53.4103
53.408
53.4056
53.4033
53.4009
53.3986
53.3962
53.3938
53.3915
53.3891
53.3868
53.3844
53.3821
53.3797
53.3774
53.375
53.3727
53.3703
53.368
53.3656
53.3632
53.3609
53.3585
53.3562
53.3538
53.3515
53.3491
53.3468
53.3444
53.3421
53.3398
53.3374
53.3351
53.3327
53.3304
53.328
53.3257
53.3233
53.321
53.3186
53.3163
53.3139
53.3116
53.3093
53.3069
53.3046
53.3022
53.2999
53.2975
53.2952
53.2929
53.2905
53.2882
53.2858
53.2835
53.2812
53.2788
53.2765
53.2741
53.2718
53.2695
53.2671
53.2648
53.2625
53.2601
53.2578
53.2555
53.2531
53.2508
53.2485
53.2461
53.2438
53.2415
53.2391
53.2368
53.2345
53.2321
53.2298
53.2275
53.2251
53.2228
53.2205
53.2181
53.2158
53.2135
53.2111
53.2088
53.2065
53.2042
53.2018
53.1995
53.1972
53.1949
53.1925
53.1902
53.1879
53.1856
53.1832
53.1809
53.1786
53.1763
53.1739
53.1716
53.1693
53.167
53.1646
53.1623
53.16
53.1577
53.1554
53.153
53.1507
53.1484
53.1461
53.1438
53.1415
53.1391
53.1368
53.1345
53.1322
53.1299
53.1275
53.1252
53.1229
53.1206
53.1183
53.116
53.1137
53.1113
53.109
53.1067
53.1044
53.1021
53.0998
53.0975
53.0952
53.0928
53.0905
53.0882
53.0859
53.0836
53.0813
53.079
53.0767
53.0744
53.0721
53.0698
53.0675
53.0651
53.0628
53.0605
53.0582
53.0559
53.0536
53.0513
53.049
53.0467
53.0444
53.0421
53.0398
53.0375
53.0352
53.0329
53.0306
53.0283
53.026
53.0237
53.0214
53.0191
53.0168
53.0145
53.0122
53.0099
53.0076
53.0053
53.003
53.0007
52.9984
52.9961
52.9938
52.9915
52.9892
52.9869
52.9846
52.9823
52.98
52.9778
52.9755
52.9732
52.9709
52.9686
52.9663
52.964
52.9617
52.9594
52.9571
52.9548
52.9525
52.9503
52.948
52.9457
52.9434
52.9411
52.9388
52.9365
52.9342
52.932
52.9297
52.9274
52.9251
52.9228
52.9205
52.9182
52.916
52.9137
52.9114
52.9091
52.9068
52.9045
52.9023
52.9
52.8977
52.8954
52.8931
52.8909
52.8886
52.8863
52.884
52.8817
52.8795
52.8772
52.8749
52.8726
52.8704
52.8681
52.8658
52.8635
52.8613
52.859
52.8567
52.8544
52.8522
52.8499
52.8476
52.8453
52.8431
52.8408
52.8385
52.8362
52.834
52.8317
52.8294
52.8272
52.8249
52.8226
52.8203
52.8181
52.8158
52.8135
52.8113
52.809
52.8067
52.8045
52.8022
52.7999
52.7977
52.7954
52.7931
52.7909
52.7886
52.7863
52.7841
52.7818
52.7796
52.7773
52.775
52.7728
52.7705
52.7682
52.766
52.7637
52.7615
52.7592
52.7569
52.7547
52.7524
52.7502
52.7479
52.7457
52.7434
52.7411
52.7389
52.7366
52.7344
52.7321
52.7299
52.7276
52.7253
52.7231
52.7208
52.7186
52.7163
52.7141
52.7118
52.7096
52.7073
52.7051
52.7028
52.7006
52.6983
52.6961
52.6938
52.6916
52.6893
52.6871
52.6848
52.6826
52.6803
52.6781
52.6758
52.6736
52.6713
52.6691
52.6668
52.6646
52.6624
52.6601
52.6579
52.6556
52.6534
52.6511
52.6489
52.6466
52.6444
52.6422
52.6399
52.6377
52.6354
52.6332
52.631
52.6287
52.6265
52.6242
52.622
52.6198
52.6175
52.6153
52.613
52.6108
52.6086
52.6063
52.6041
52.6019
52.5996
52.5974
52.5952
52.5929
52.5907
52.5885
52.5862
52.584
52.5818
52.5795
52.5773
52.5751
52.5728
52.5706
52.5684
52.5661
52.5639
52.5617
52.5594
52.5572
52.555
52.5528
52.5505
52.5483
52.5461
52.5439
52.5416
52.5394
52.5372
52.535
52.5327
52.5305
52.5283
52.5261
52.5238
52.5216
52.5194
52.5172
52.5149
52.5127
52.5105
52.5083
52.5061
52.5038
52.5016
52.4994
52.4972
52.495
52.4927
52.4905
52.4883
52.4861
52.4839
52.4816
52.4794
52.4772
52.475
52.4728
52.4706
52.4683
52.4661
52.4639
52.4617
52.4595
52.4573
52.4551
52.4528
52.4506
52.4484
52.4462
52.444
52.4418
52.4396
52.4374
52.4352
52.4329
52.4307
52.4285
52.4263
52.4241
52.4219
52.4197
52.4175
52.4153
52.4131
52.4109
52.4087
52.4065
52.4043
52.402
52.3998
52.3976
52.3954
52.3932
52.391
52.3888
52.3866
52.3844
52.3822
52.38
52.3778
52.3756
52.3734
52.3712
52.369
52.3668
52.3646
52.3624
52.3602
52.358
52.3558
52.3536
52.3514
52.3492
52.347
52.3448
52.3426
52.3405
52.3383
52.3361
52.3339
52.3317
52.3295
52.3273
52.3251
52.3229
52.3207
52.3185
52.3163
52.3141
52.3119
52.3098
52.3076
52.3054
52.3032
52.301
52.2988
52.2966
52.2944
52.2922
52.2901
52.2879
52.2857
52.2835
52.2813
52.2791
52.2769
52.2748
52.2726
52.2704
52.2682
52.266
52.2638
52.2616
52.2595
52.2573
52.2551
52.2529
52.2507
52.2486
52.2464
52.2442
52.242
52.2398
52.2377
52.2355
52.2333
52.2311
52.2289
52.2268
52.2246
52.2224
52.2202
52.2181
52.2159
52.2137
52.2115
52.2094
52.2072
52.205
52.2028
52.2007
52.1985
52.1963
52.1941
52.192
52.1898
52.1876
52.1855
52.1833
52.1811
52.1789
52.1768
52.1746
52.1724
52.1703
52.1681
52.1659
52.1638
52.1616
52.1594
52.1573
52.1551
52.1529
52.1508
52.1486
52.1464
52.1443
52.1421
52.1399
52.1378
52.1356
52.1335
52.1313
52.1291
52.127
52.1248
52.1226
52.1205
52.1183
52.1162
52.114
52.1118
52.1097
52.1075
52.1054
52.1032
52.1011
52.0989
52.0967
52.0946
52.0924
52.0903
52.0881
52.086
52.0838
52.0816
52.0795
52.0773
52.0752
52.073
52.0709
52.0687
52.0666
52.0644
52.0623
52.0601
52.058
52.0558
52.0537
52.0515
52.0494
52.0472
52.0451
52.0429
52.0408
52.0386
52.0365
52.0343
52.0322
52.03
52.0279
52.0257
52.0236
52.0215
52.0193
52.0172
52.015
52.0129
52.0107
52.0086
52.0064
52.0043
52.0022
52
51.9979
51.9957
51.9936
51.9915
51.9893
51.9872
51.985
51.9829
51.9808
51.9786
51.9765
51.9743
51.9722
51.9701
51.9679
51.9658
51.9637
51.9615
51.9594
51.9573
51.9551
51.953
51.9508
51.9487
51.9466
51.9444
51.9423
51.9402
51.9381
51.9359
51.9338
51.9317
51.9295
51.9274
51.9253
51.9231
51.921
51.9189
51.9167
51.9146
51.9125
51.9104
51.9082
51.9061
51.904
51.9019
51.8997
51.8976
51.8955
51.8934
51.8912
51.8891
51.887
51.8849
51.8827
51.8806
51.8785
51.8764
51.8742
51.8721
51.87
51.8679
51.8658
51.8636
51.8615
51.8594
51.8573
51.8552
51.853
51.8509
51.8488
51.8467
51.8446
51.8425
51.8403
51.8382
51.8361
51.834