# vtk DataFile Version 2.0
vtk output
ASCII
DATASET STRUCTURED_GRID
DIMENSIONS 50 10 30
POINTS 15000 float
0 0 0
1 0 0
2 0 0
3 0 0
4 0 0
5 0 0
6 0 0
7 0 0
8 0 0
9 0 0
10 0 0
11 0 0
12 0 0
13 0 0
14 0 0
15 0 0
16 0 0
17 0 0
18 0 0
19 0 0
20 0 0
21 0 0
22 0 0
23 0 0
24 0 0
25 0 0
26 0 0
27 0 0
28 0 0
29 0 0
30 0 0
31 0 0
32 0 0
33 0 0
34 0 0
35 0 0
36 0 0
37 0 0
38 0 0
39 0 0
40 0 0
41 0 0
42 0 0
43 0 0
44 0 0
45 0 0
46 0 0
47 0 0
48 0 0
49 0 0
0 1 0
1 1 0
2 1 0
3 1 0
4 1 0
5 1 0
6 1 0
7 1 0
8 1 0
9 1 0
10 1 0
11 1 0
12 1 0
13 1 0
14 1 0
15 1 0
16 1 0
17 1 0
18 1 0
19 1 0
20 1 0
21 1 0
22 1 0
23 1 0
24 1 0
25 1 0
26 1 0
27 1 0
28 1 0
29 1 0
30 1 0
31 1 0
32 1 0
33 1 0
34 1 0
35 1 0
36 1 0
37 1 0
38 1 0
39 1 0
40 1 0
41 1 0
42 1 0
43 1 0
44 1 0
45 1 0
46 1 0
47 1 0
48 1 0
49 1 0
0 2 0
1 2 0
2 2 0
3 2 0
4 2 0
5 2 0
6 2 0
7 2 0
8 2 0
9 2 0
10 2 0
11 2 0
12 2 0
13 2 0
14 2 0
15 2 0
16 2 0
17 2 0
18 2 0
19 2 0
20 2 0
21 2 0
22 2 0
23 2 0
24 2 0
25 2 0
26 2 0
27 2 0
28 2 0
29 2 0
30 2 0
31 2 0
32 2 0
33 2 0
34 2 0
35 2 0
36 2 0
37 2 0
38 2 0
39 2 0
40 2 0
41 2 0
42 2 0
43 2 0
44 2 0
45 2 0
46 2 0
47 2 0
48 2 0
49 2 0
0 3 0
1 3 0
2 3 0
3 3 0
4 3 0
5 3 0
6 3 0
7 3 0
8 3 0
9 3 0
10 3 0
11 3 0
12 3 0
13 3 0
14 3 0
15 3 0
16 3 0
17 3 0
18 3 0
19 3 0
20 3 0
21 3 0
22 3 0
23 3 0
24 3 0
25 3 0
26 3 0
27 3 0
28 3 0
29 3 0
30 3 0
31 3 0
32 3 0
33 3 0
34 3 0
35 3 0
36 3 0
37 3 0
38 3 0
39 3 0
40 3 0
41 3 0
42 3 0
43 3 0
44 3 0
45 3 0
46 3 0
47 3 0
48 3 0
49 3 0
0 4 0
1 4 0
2 4 0
3 4 0
4 4 0
5 4 0
6 4 0
7 4 0
8 4 0
9 4 0
10 4 0
11 4 0
12 4 0
13 4 0
14 4 0
15 4 0
16 4 0
17 4 0
18 4 0
19 4 0
20 4 0
21 4 0
22 4 0
23 4 0
24 4 0
25 4 0
26 4 0
27 4 0
28 4 0
29 4 0
30 4 0
31 4 0
32 4 0
33 4 0
34 4 0
35 4 0
36 4 0
37 4 0
38 4 0
39 4 0
40 4 0
41 4 0
42 4 0
43 4 0
44 4 0
45 4 0
46 4 0
47 4 0
48 4 0
49 4 0
0 5 0
1 5 0
2 5 0
3 5 0
4 5 0
5 5 0
6 5 0
7 5 0
8 5 0
9 5 0
10 5 0
11 5 0
12 5 0
13 5 0
14 5 0
15 5 0
16 5 0
17 5 0
18 5 0
19 5 0
20 5 0
21 5 0
22 5 0
23 5 0
24 5 0
25 5 0
26 5 0
27 5 0
28 5 0
29 5 0
30 5 0
31 5 0
32 5 0
33 5 0
34 5 0
35 5 0
36 5 0
37 5 0
38 5 0
39 5 0
40 5 0
41 5 0
42 5 0
43 5 0
44 5 0
45 5 0
46 5 0
47 5 0
48 5 0
49 5 0
0 6 0
1 6 0
2 6 0
3 6 0
4 6 0
5 6 0
6 6 0
7 6 0
8 6 0
9 6 0
10 6 0
11 6 0
12 6 0
13 6 0
14 6 0
15 6 0
16 6 0
17 6 0
18 6 0
19 6 0
20 6 0
21 6 0
22 6 0
23 6 0
24 6 0
25 6 0
26 6 0
27 6 0
28 6 0
29 6 0
30 6 0
31 6 0
32 6 0
33 6 0
34 6 0
35 6 0
36 6 0
37 6 0
38 6 0
39 6 0
40 6 0
41 6 0
42 6 0
43 6 0
44 6 0
45 6 0
46 6 0
47 6 0
48 6 0
49 6 0
0 7 0
1 7 0
2 7 0
3 7 0
4 7 0
5 7 0
6 7 0
7 7 0
8 7 0
9 7 0
10 7 0
11 7 0
12 7 0
13 7 0
14 7 0
15 7 0
16 7 0
17 7 0
18 7 0
19 7 0
20 7 0
21 7 0
22 7 0
23 7 0
24 7 0
25 7 0
26 7 0
27 7 0
28 7 0
29 7 0
30 7 0
31 7 0
32 7 0
33 7 0
34 7 0
35 7 0
36 7 0
37 7 0
38 7 0
39 7 0
40 7 0
41 7 0
42 7 0
43 7 0
44 7 0
45 7 0
46 7 0
47 7 0
48 7 0
49 7 0
0 8 0
1 8 0
2 8 0
3 8 0
4 8 0
5 8 0
6 8 0
7 8 0
8 8 0
9 8 0
10 8 0
11 8 0
12 8 0
13 8 0
14 8 0
15 8 0
16 8 0
17 8 0
18 8 0
19 8 0
20 8 0
21 8 0
22 8 0
23 8 0
24 8 0
25 8 0
26 8 0
27 8 0
28 8 0
29 8 0
30 8 0
31 8 0
32 8 0
33 8 0
34 8 0
35 8 0
36 8 0
37 8 0
38 8 0
39 8 0
40 8 0
41 8 0
42 8 0
43 8 0
44 8 0
45 8 0
46 8 0
47 8 0
48 8 0
49 8 0
0 9 0
1 9 0
2 9 0
3 9 0
4 9 0
5 9 0
6 9 0
7 9 0
8 9 0
9 9 0
10 9 0
11 9 0
12 9 0
13 9 0
14 9 0
15 9 0
16 9 0
17 9 0
18 9 0
19 9 0
20 9 0
21 9 0
22 9 0
23 9 0
24 9 0
25 9 0
26 9 0
27 9 0
28 9 0
29 9 0
30 9 0
31 9 0
32 9 0
33 9 0
34 9 0
35 9 0
36 9 0
37 9 0
38 9 0
39 9 0
40 9 0
41 9 0
42 9 0
43 9 0
44 9 0
45 9 0
46 9 0
47 9 0
48 9 0
49 9 0
0 0 1
1 0 1
2 0 1
3 0 1
4 0 1
5 0 1
6 0 1
7 0 1
8 0 1
9 0 1
10 0 1
11 0 1
12 0 1
13 0 1
14 0 1
15 0 1
16 0 1
17 0 1
18 0 1
19 0 1
20 0 1
21 0 1
22 0 1
23 0 1
24 0 1
25 0 1
26 0 1
27 0 1
28 0 1
29 0 1
30 0 1
31 0 1
32 0 1
33 0 1
34 0 1
35 0 1
36 0 1
37 0 1
38 0 1
39 0 1
40 0 1
41 0 1
42 0 1
43 0 1
44 0 1
45 0 1
46 0 1
47 0 1
48 0 1
49 0 1
0 1 1
1 1 1
2 1 1
3 1 1
4 1 1
5 1 1
6 1 1
7 1 1
8 1 1
9 1 1
10 1 1
11 1 1
12 1 1
13 1 1
14 1 1
15 1 1
16 1 1
17 1 1
18 1 1
19 1 1
20 1 1
21 1 1
22 1 1
23 1 1
24 1 1
25 1 1
26 1 1
27 1 1
28 1 1
29 1 1
30 1 1
31 1 1
32 1 1
33 1 1
34 1 1
35 1 1
36 1 1
37 1 1
38 1 1
39 1 1
40 1 1
41 1 1
42 1 1
43 1 1
44 1 1
45 1 1
46 1 1
47 1 1
48 1 1
49 1 1
0 2 1
1 2 1
2 2 1
3 2 1
4 2 1
5 2 1
6 2 1
7 2 1
8 2 1
9 2 1
10 2 1
11 2 1
12 2 1
13 2 1
14 2 1
15 2 1
16 2 1
17 2 1
18 2 1
19 2 1
20 2 1
21 2 1
22 2 1
23 2 1
24 2 1
25 2 1
26 2 1
27 2 1
28 2 1
29 2 1
30 2 1
31 2 1
32 2 1
33 2 1
34 2 1
35 2 1
36 2 1
37 2 1
38 2 1
39 2 1
40 2 1
41 2 1
42 2 1
43 2 1
44 2 1
45 2 1
46 2 1
47 2 1
48 2 1
49 2 1
0 3 1
1 3 1
2 3 1
3 3 1
4 3 1
5 3 1
6 3 1
7 3 1
8 3 1
9 3 1
10 3 1
11 3 1
12 3 1
13 3 1
14 3 1
15 3 1
16 3 1
17 3 1
18 3 1
19 3 1
20 3 1
21 3 1
22 3 1
23 3 1
24 3 1
25 3 1
26 3 1
27 3 1
28 3 1
29 3 1
30 3 1
31 3 1
32 3 1
33 3 1
34 3 1
35 3 1
36 3 1
37 3 1
38 3 1
39 3 1
40 3 1
41 3 1
42 3 1
43 3 1
44 3 1
45 3 1
46 3 1
47 3 1
48 3 1
49 3 1
0 4 1
1 4 1
2 4 1
3 4 1
4 4 1
5 4 1
6 4 1
7 4 1
8 4 1
9 4 1
10 4 1
11 4 1
12 4 1
13 4 1
14 4 1
15 4 1
16 4 1
17 4 1
18 4 1
19 4 1
20 4 1
21 4 1
22 4 1
23 4 1
24 4 1
25 4 1
26 4 1
27 4 1
28 4 1
29 4 1
30 4 1
31 4 1
32 4 1
33 4 1
34 4 1
35 4 1
36 4 1
37 4 1
38 4 1
39 4 1
40 4 1
41 4 1
42 4 1
43 4 1
44 4 1
45 4 1
46 4 1
47 4 1
48 4 1
49 4 1
0 5 1
1 5 1
2 5 1
3 5 1
4 5 1
5 5 1
6 5 1
7 5 1
8 5 1
9 5 1
10 5 1
11 5 1
12 5 1
13 5 1
14 5 1
15 5 1
16 5 1
17 5 1
18 5 1
19 5 1
20 5 1
21 5 1
22 5 1
23 5 1
24 5 1
25 5 1
26 5 1
27 5 1
28 5 1
29 5 1
30 5 1
31 5 1
32 5 1
33 5 1
34 5 1
35 5 1
36 5 1
37 5 1
38 5 1
39 5 1
40 5 1
41 5 1
42 5 1
43 5 1
44 5 1
45 5 1
46 5 1
47 5 1
48 5 1
49 5 1
0 6 1
1 6 1
2 6 1
3 6 1
4 6 1
5 6 1
6 6 1
7 6 1
8 6 1
9 6 1
10 6 1
11 6 1
12 6 1
13 6 1
14 6 1
15 6 1
16 6 1
17 6 1
18 6 1
19 6 1
20 6 1
21 6 1
22 6 1
23 6 1
24 6 1
25 6 1
26 6 1
27 6 1
28 6 1
29 6 1
30 6 1
31 6 1
32 6 1
33 6 1
34 6 1
35 6 1
36 6 1
37 6 1
38 6 1
39 6 1
40 6 1
41 6 1
42 6 1
43 6 1
44 6 1
45 6 1
46 6 1
47 6 1
48 6 1
49 6 1
0 7 1
1 7 1
2 7 1
3 7 1
4 7 1
5 7 1
6 7 1
7 7 1
8 7 1
9 7 1
10 7 1
11 7 1
12 7 1
13 7 1
14 7 1
15 7 1
16 7 1
17 7 1
18 7 1
19 7 1
20 7 1
21 7 1
22 7 1
23 7 1
24 7 1
25 7 1
26 7 1
27 7 1
28 7 1
29 7 1
30 7 1
31 7 1
32 7 1
33 7 1
34 7 1
35 7 1
36 7 1
37 7 1
38 7 1
39 7 1
40 7 1
41 7 1
42 7 1
43 7 1
44 7 1
45 7 1
46 7 1
47 7 1
48 7 1
49 7 1
0 8 1
1 8 1
2 8 1
3 8 1
4 8 1
5 8 1
6 8 1
7 8 1
8 8 1
9 8 1
10 8 1
11 8 1
12 8 1
13 8 1
14 8 1
15 8 1
16 8 1
17 8 1
18 8 1
19 8 1
20 8 1
21 8 1
22 8 1
23 8 1
24 8 1
25 8 1
26 8 1
27 8 1
28 8 1
29 8 1
30 8 1
31 8 1
32 8 1
33 8 1
34 8 1
35 8 1
36 8 1
37 8 1
38 8 1
39 8 1
40 8 1
41 8 1
42 8 1
43 8 1
44 8 1
45 8 1
46 8 1
47 8 1
48 8 1
49 8 1
0 9 1
1 9 1
2 9 1
3 9 1
4 9 1
5 9 1
6 9 1
7 9 1
8 9 1
9 9 1
10 9 1
11 9 1
12 9 1
13 9 1
14 9 1
15 9 1
16 9 1
17 9 1
18 9 1
19 9 1
20 9 1
21 9 1
22 9 1
23 9 1
24 9 1
25 9 1
26 9 1
27 9 1
28 9 1
29 9 1
30 9 1
31 9 1
32 9 1
33 9 1
34 9 1
35 9 1
36 9 1
37 9 1
38 9 1
39 9 1
40 9 1
41 9 1
42 9 1
43 9 1
44 9 1
45 9 1
46 9 1
47 9 1
48 9 1
49 9 1
0 0 2
1 0 2
2 0 2
3 0 2
4 0 2
5 0 2
6 0 2
7 0 2
8 0 2
9 0 2
10 0 2
11 0 2
12 0 2
13 0 2
14 0 2
15 0 2
16 0 2
17 0 2
18 0 2
19 0 2
20 0 2
21 0 2
22 0 2
23 0 2
24 0 2
25 0 2
26 0 2
27 0 2
28 0 2
29 0 2
30 0 2
31 0 2
32 0 2
33 0 2
34 0 2
35 0 2
36 0 2
37 0 2
38 0 2
39 0 2
40 0 2
41 0 2
42 0 2
43 0 2
44 0 2
45 0 2
46 0 2
47 0 2
48 0 2
49 0 2
0 1 2
1 1 2
2 1 2
3 1 2
4 1 2
5 1 2
6 1 2
7 1 2
8 1 2
9 1 2
10 1 2
11 1 2
12 1 2
13 1 2
14 1 2
15 1 2
16 1 2
17 1 2
18 1 2
19 1 2
20 1 2
21 1 2
22 1 2
23 1 2
24 1 2
25 1 2
26 1 2
27 1 2
28 1 2
29 1 2
30 1 2
31 1 2
32 1 2
33 1 2
34 1 2
35 1 2
36 1 2
37 1 2
38 1 2
39 1 2
40 1 2
41 1 2
42 1 2
43 1 2
44 1 2
45 1 2
46 1 2
47 1 2
48 1 2
49 1 2
0 2 2
1 2 2
2 2 2
3 2 2
4 2 2
5 2 2
6 2 2
7 2 2
8 2 2
9 2 2
10 2 2
11 2 2
12 2 2
13 2 2
14 2 2
15 2 2
16 2 2
17 2 2
18 2 2
19 2 2
20 2 2
21 2 2
22 2 2
23 2 2
24 2 2
25 2 2
26 2 2
27 2 2
28 2 2
29 2 2
30 2 2
31 2 2
32 2 2
33 2 2
34 2 2
35 2 2
36 2 2
37 2 2
38 2 2
39 2 2
40 2 2
41 2 2
42 2 2
43 2 2
44 2 2
45 2 2
46 2 2
47 2 2
48 2 2
49 2 2
0 3 2
1 3 2
2 3 2
3 3 2
4 3 2
5 3 2
6 3 2
7 3 2
8 3 2
9 3 2
10 3 2
11 3 2
12 3 2
13 3 2
14 3 2
15 3 2
16 3 2
17 3 2
18 3 2
19 3 2
20 3 2
21 3 2
22 3 2
23 3 2
24 3 2
25 3 2
26 3 2
27 3 2
28 3 2
29 3 2
30 3 2
31 3 2
32 3 2
33 3 2
34 3 2
35 3 2
36 3 2
37 3 2
38 3 2
39 3 2
40 3 2
41 3 2
42 3 2
43 3 2
44 3 2
45 3 2
46 3 2
47 3 2
48 3 2
49 3 2
0 4 2
1 4 2
2 4 2
3 4 2
4 4 2
5 4 2
6 4 2
7 4 2
8 4 2
9 4 2
10 4 2
11 4 2
12 4 2
13 4 2
14 4 2
15 4 2
16 4 2
17 4 2
18 4 2
19 4 2
20 4 2
21 4 2
22 4 2
23 4 2
24 4 2
25 4 2
26 4 2
27 4 2
28 4 2
29 4 2
30 4 2
31 4 2
32 4 2
33 4 2
34 4 2
35 4 2
36 4 2
37 4 2
38 4 2
39 4 2
40 4 2
41 4 2
42 4 2
43 4 2
44 4 2
45 4 2
46 4 2
47 4 2
48 4 2
49 4 2
0 5 2
1 5 2
2 5 2
3 5 2
4 5 2
5 5 2
6 5 2
7 5 2
8 5 2
9 5 2
10 5 2
11 5 2
12 5 2
13 5 2
14 5 2
15 5 2
16 5 2
17 5 2
18 5 2
19 5 2
20 5 2
21 5 2
22 5 2
23 5 2
24 5 2
25 5 2
26 5 2
27 5 2
28 5 2
29 5 2
30 5 2
31 5 2
32 5 2
33 5 2
34 5 2
35 5 2
36 5 2
37 5 2
38 5 2
39 5 2
40 5 2
41 5 2
42 5 2
43 5 2
44 5 2
45 5 2
46 5 2
47 5 2
48 5 2
49 5 2
0 6 2
1 6 2
2 6 2
3 6 2
4 6 2
5 6 2
6 6 2
7 6 2
8 6 2
9 6 2
10 6 2
11 6 2
12 6 2
13 6 2
14 6 2
15 6 2
16 6 2
17 6 2
18 6 2
19 6 2
20 6 2
21 6 2
22 6 2
23 6 2
24 6 2
25 6 2
26 6 2
27 6 2
28 6 2
29 6 2
30 6 2
31 6 2
32 6 2
33 6 2
34 6 2
35 6 2
36 6 2
37 6 2
38 6 2
39 6 2
40 6 2
41 6 2
42 6 2
43 6 2
44 6 2
45 6 2
46 6 2
47 6 2
48 6 2
49 6 2
0 7 2
1 7 2
2 7 2
3 7 2
4 7 2
5 7 2
6 7 2
7 7 2
8 7 2
9 7 2
10 7 2
11 7 2
12 7 2
13 7 2
14 7 2
15 7 2
16 7 2
17 7 2
18 7 2
19 7 2
20 7 2
21 7 2
22 7 2
23 7 2
24 7 2
25 7 2
26 7 2
27 7 2
28 7 2
29 7 2
30 7 2
31 7 2
32 7 2
33 7 2
34 7 2
35 7 2
36 7 2
37 7 2
38 7 2
39 7 2
40 7 2
41 7 2
42 7 2
43 7 2
44 7 2
45 7 2
46 7 2
47 7 2
48 7 2
49 7 2
0 8 2
1 8 2
2 8 2
3 8 2
4 8 2
5 8 2
6 8 2
7 8 2
8 8 2
9 8 2
10 8 2
11 8 2
12 8 2
13 8 2
14 8 2
15 8 2
16 8 2
17 8 2
18 8 2
19 8 2
20 8 2
21 8 2
22 8 2
23 8 2
24 8 2
25 8 2
26 8 2
27 8 2
28 8 2
29 8 2
30 8 2
31 8 2
32 8 2
33 8 2
34 8 2
35 8 2
36 8 2
37 8 2
38 8 2
39 8 2
40 8 2
41 8 2
42 8 2
43 8 2
44 8 2
45 8 2
46 8 2
47 8 2
48 8 2
49 8 2
0 9 2
1 9 2
2 9 2
3 9 2
4 9 2
[...]
POINT_DATA 15000
SCALARS sol172 float
LOOKUP_TABLE default
57.6802
57.6771
57.6741
57.671
57.668
57.6649
57.6619
57.6589
57.6558
57.6528
57.6497
57.6467
57.6436
57.6406
57.6375
57.6345
57.6315
57.6284
57.6254
57.6223
57.6193
57.6162
57.6132
57.6102
57.6071
57.6041
57.6011
57.598
57.595
57.5919
57.5889
57.5859
57.5828
57.5798
57.5768
57.5737
57.5707
57.5677
57.5646
57.5616
57.5586
57.5555
57.5525
57.5495
57.5464
57.5434
57.5404
57.5373
57.5343
57.5313
57.5282
57.5252
57.5222
57.5192
57.5161
57.5131
57.5101
57.5071
57.504
57.501
57.498
57.495
57.4919
57.4889
57.4859
57.4829
57.4798
57.4768
57.4738
57.4708
57.4677
57.4647
57.4617
57.4587
57.4557
57.4527
57.4496
57.4466
57.4436
57.4406
57.4376
57.4345
57.4315
57.4285
57.4255
57.4225
57.4195
57.4165
57.4134
57.4104
57.4074
57.4044
57.4014
57.3984
57.3954
57.3924
57.3893
57.3863
57.3833
57.3803
57.3773
57.3743
57.3713
57.3683
57.3653
57.3623
57.3593
57.3563
57.3533
57.3502
57.3472
57.3442
57.3412
57.3382
57.3352
57.3322
57.3292
57.3262
57.3232
57.3202
57.3172
57.3142
57.3112
57.3082
57.3052
57.3022
57.2992
57.2962
57.2932
57.2902
57.2872
57.2842
57.2812
57.2782
57.2752
57.2723
57.2693
57.2663
57.2633
57.2603
57.2573
57.2543
57.2513
57.2483
57.2453
57.2423
57.2393
57.2363
57.2334
57.2304
57.2274
57.2244
57.2214
57.2184
57.2154
57.2124
57.2095
57.2065
57.2035
57.2005
57.1975
57.1945
57.1915
57.1886
57.1856
57.1826
57.1796
57.1766
57.1737
57.1707
57.1677
57.1647
57.1617
57.1587
57.1558
57.1528
57.1498
57.1468
57.1439
57.1409
57.1379
57.1349
57.132
57.129
57.126
57.123
57.1201
57.1171
57.1141
57.1111
57.1082
57.1052
57.1022
57.0992
57.0963
57.0933
57.0903
57.0874
57.0844
57.0814
57.0785
57.0755
57.0725
57.0695
57.0666
57.0636
57.0606
57.0577
57.0547
57.0518
57.0488
57.0458
57.0429
57.0399
57.0369
57.034
57.031
57.028
57.0251
57.0221
57.0192
57.0162
57.0132
57.0103
57.0073
57.0044
57.0014
56.9984
56.9955
56.9925
56.9896
56.9866
56.9837
56.9807
56.9778
56.9748
56.9718
56.9689
56.9659
56.963
56.96
56.9571
56.9541
56.9512
56.9482
56.9453
56.9423
56.9394
56.9364
56.9335
56.9305
56.9276
56.9246
56.9217
56.9187
56.9158
56.9128
56.9099
56.9069
56.904
56.9011
56.8981
56.8952
56.8922
56.8893
56.8863
56.8834
56.8805
56.8775
56.8746
56.8716
56.8687
56.8657
56.8628
56.8599
56.8569
56.854
56.8511
56.8481
56.8452
56.8422
56.8393
56.8364
56.8334
56.8305
56.8276
56.8246
56.8217
56.8188
56.8158
56.8129
56.81
56.807
56.8041
56.8012
56.7982
56.7953
56.7924
56.7894
56.7865
56.7836
56.7807
56.7777
56.7748
56.7719
56.7689
56.766
56.7631
56.7602
56.7572
56.7543
56.7514
56.7485
56.7455
56.7426
56.7397
56.7368
56.7338
56.7309
56.728
56.7251
56.7222
56.7192
56.7163
56.7134
56.7105
56.7076
56.7046
56.7017
56.6988
56.6959
56.693
56.6901
56.6871
56.6842
56.6813
56.6784
56.6755
56.6726
56.6697
56.6667
56.6638
56.6609
56.658
56.6551
56.6522
56.6493
56.6464
56.6435
56.6405
56.6376
56.6347
56.6318
56.6289
56.626
56.6231
56.6202
56.6173
56.6144
56.6115
56.6086
56.6057
56.6028
56.5998
56.5969
56.594
56.5911
56.5882
56.5853
56.5824
56.5795
56.5766
56.5737
56.5708
56.5679
56.565
56.5621
56.5592
56.5563
56.5534
56.5505
56.5476
56.5447
56.5418
56.539
56.5361
56.5332
56.5303
56.5274
56.5245
56.5216
56.5187
56.5158
56.5129
56.51
56.5071
56.5042
56.5013
56.4984
56.4956
56.4927
56.4898
56.4869
56.484
56.4811
56.4782
56.4753
56.4725
56.4696
56.4667
56.4638
56.4609
56.458
56.4551
56.4523
56.4494
56.4465
56.4436
56.4407
56.4378
56.435
56.4321
56.4292
56.4263
56.4234
56.4206
56.4177
56.4148
56.4119
56.409
56.4062
56.4033
56.4004
56.3975
56.3947
56.3918
56.3889
56.386
56.3832
56.3803
56.3774
56.3745
56.3717
56.3688
56.3659
56.363
56.3602
56.3573
56.3544
56.3516
56.3487
56.3458
56.3429
56.3401
56.3372
56.3343
56.3315
56.3286
56.3257
56.3229
56.32
56.3171
56.3143
56.3114
56.3085
56.3057
56.3028
56.3
56.2971
56.2942
56.2914
56.2885
56.2856
56.2828
56.2799
56.2771
56.2742
56.2713
56.2685
56.2656
56.2628
56.2599
56.2571
56.2542
56.2513
56.2485
56.2456
56.2428
56.2399
56.2371
56.2342
56.2314
56.2285
56.2256
56.2228
56.2199
56.2171
56.2142
56.2114
56.2085
56.2057
56.2028
56.2
56.1971
56.1943
56.1914
56.1886
56.1857
56.1829
56.18
56.1772
56.1744
56.1715
56.1687
56.1658
56.163
56.1601
56.1573
56.1544
56.1516
56.1488
56.1459
56.1431
56.1402
56.1374
56.1345
56.1317
56.1289
56.126
56.1232
56.1204
56.1175
56.1147
56.1118
56.109
56.1062
56.1033
56.1005
56.0977
56.0948
56.092
56.0891
56.0863
56.0835
56.0806
56.0778
56.075
56.0721
56.0693
56.0665
56.0637
56.0608
56.058
56.0552
56.0523
56.0495
56.0467
56.0438
56.041
56.0382
56.0354
56.0325
56.0297
56.0269
56.0241
56.0212
56.0184
56.0156
56.0128
56.0099
56.0071
56.0043
56.0015
55.9986
55.9958
55.993
55.9902
55.9874
55.9845
55.9817
55.9789
55.9761
55.9733
55.9704
55.9676
55.9648
55.962
55.9592
55.9564
55.9535
55.9507
55.9479
55.9451
55.9423
55.9395
55.9367
55.9338
55.931
55.9282
55.9254
55.9226
55.9198
55.917
55.9142
55.9114
55.9085
55.9057
55.9029
55.9001
55.8973
55.8945
55.8917
55.8889
55.8861
55.8833
55.8805
55.8777
55.8749
55.8721
55.8692
55.8664
55.8636
55.8608
55.858
55.8552
55.8524
55.8496
55.8468
55.844
55.8412
55.8384
55.8356
55.8328
55.83
55.8272
55.8244
55.8216
55.8188
55.816
55.8132
55.8104
55.8076
55.8049
55.8021
55.7993
55.7965
55.7937
55.7909
55.7881
55.7853
55.7825
55.7797
55.7769
55.7741
55.7713
55.7685
55.7658
55.763
55.7602
55.7574
55.7546
55.7518
55.749
55.7462
55.7434
55.7407
55.7379
55.7351
55.7323
55.7295
55.7267
55.724
55.7212
55.7184
55.7156
55.7128
55.71
55.7073
55.7045
55.7017
55.6989
55.6961
55.6933
55.6906
55.6878
55.685
55.6822
55.6795
55.6767
55.6739
55.6711
55.6683
55.6656
55.6628
55.66
55.6572
55.6545
55.6517
55.6489
55.6461
55.6434
55.6406
55.6378
55.6351
55.6323
55.6295
55.6267
55.624
55.6212
55.6184
55.6157
55.6129
55.6101
55.6074
55.6046
55.6018
55.5991
55.5963
55.5935
55.5908
55.588
55.5852
55.5825
55.5797
55.5769
55.5742
55.5714
55.5686
55.5659
55.5631
55.5604
55.5576
55.5548
55.5521
55.5493
55.5466
55.5438
55.541
55.5383
55.5355
55.5328
55.53
55.5272
55.5245
55.5217
55.519
55.5162
55.5135
55.5107
55.508
55.5052
55.5024
55.4997
55.4969
55.4942
55.4914
55.4887
55.4859
55.4832
55.4804
55.4777
55.4749
55.4722
55.4694
55.4667
55.4639
55.4612
55.4584
55.4557
55.4529
55.4502
55.4475
55.4447
55.442
55.4392
55.4365
55.4337
55.431
55.4282
55.4255
55.4228
55.42
55.4173
55.4145
55.4118
55.4091
55.4063
55.4036
55.4008
55.3981
55.3954
55.3926
55.3899
55.3871
55.3844
55.3817
55.3789
55.3762
55.3735
55.3707
55.368
55.3653
55.3625
55.3598
55.3571
55.3543
55.3516
55.3489
55.3461
55.3434
55.3407
55.3379
55.3352
55.3325
55.3297
55.327
55.3243
55.3216
55.3188
55.3161
55.3134
55.3106
55.3079
55.3052
55.3025
55.2997
55.297
55.2943
55.2916
55.2888
55.2861
55.2834
55.2807
55.2779
55.2752
55.2725
55.2698
55.2671
55.2643
55.2616
55.2589
55.2562
55.2535
55.2507
55.248
55.2453
55.2426
55.2399
55.2372
55.2344
55.2317
55.229
55.2263
55.2236
55.2209
55.2182
55.2154
55.2127
55.21
55.2073
55.2046
55.2019
55.1992
55.1965
55.1937
55.191
55.1883
55.1856
55.1829
55.1802
55.1775
55.1748
55.1721
55.1694
55.1667
55.164
55.1612
55.1585
55.1558
55.1531
55.1504
55.1477
55.145
55.1423
55.1396
55.1369
55.1342
55.1315
55.1288
55.1261
55.1234
55.1207
55.118
55.1153
55.1126
55.1099
55.1072
55.1045
55.1018
55.0991
55.0964
55.0937
55.091
55.0883
55.0856
55.0829
55.0802
55.0775
55.0748
55.0722
55.0695
55.0668
55.0641
55.0614
55.0587
55.056
55.0533
55.0506
55.0479
55.0452
55.0426
55.0399
55.0372
55.0345
55.0318
55.0291
55.0264
55.0237
55.021
55.0184
55.0157
55.013
55.0103
55.0076
55.0049
55.0023
54.9996
54.9969
54.9942
54.9915
54.9888
54.9862
54.9835
54.9808
54.9781
54.9754
54.9728
54.9701
54.9674
54.9647
54.962
54.9594
54.9567
54.954
54.9513
54.9487
54.946
54.9433
54.9406
54.938
54.9353
54.9326
54.9299
54.9273
54.9246
54.9219
54.9192
54.9166
54.9139
54.9112
54.9086
54.9059
54.9032
54.9005
54.8979
54.8952
54.8925
54.8899
54.8872
54.8845
54.8819
54.8792
54.8765
54.8739
54.8712
54.8685
54.8659
54.8632
54.8606
54.8579
54.8552
54.8526
54.8499
54.8472
54.8446
54.8419
54.8393
54.8366
54.8339
54.8313
54.8286
54.826
54.8233
54.8206
54.818
54.8153
54.8127
54.81
54.8074
54.8047
54.802
54.7994
54.7967
54.7941
54.7914
54.7888
54.7861
54.7835
54.7808
54.7782
54.7755
54.7729
54.7702
54.7676
54.7649
54.7623
54.7596
54.757
54.7543
54.7517
54.749
54.7464
54.7437
54.7411
54.7384
54.7358
54.7331
54.7305
54.7278
54.7252
54.7225
54.7199
54.7173
54.7146
54.712
54.7093
54.7067
54.704
54.7014
54.6988
54.6961
54.6935
54.6908
54.6882
54.6856
54.6829
54.6803
54.6776
54.675
54.6724
54.6697
54.6671
54.6645
54.6618
54.6592
54.6566
54.6539
54.6513
54.6487
54.646
54.6434
54.6408
54.6381
54.6355
54.6329
54.6302
54.6276
54.625
54.6223
54.6197
54.6171
54.6144
54.6118
54.6092
54.6066
54.6039
54.6013
54.5987
54.5961
54.5934
54.5908
54.5882
54.5856
54.5829
54.5803
54.5777
54.5751
54.5724
54.5698
54.5672
54.5646
54.5619
54.5593
54.5567
54.5541
54.5515
54.5488
54.5462
54.5436
54.541
54.5384
54.5358
54.5331
54.5305
54.5279
54.5253
54.5227
54.5201
54.5174
54.5148
54.5122
54.5096
54.507
54.5044
54.5018
54.4991
54.4965
54.4939
54.4913
54.4887
54.4861
54.4835
54.4809
54.4783
54.4756
54.473
54.4704
54.4678
54.4652
54.4626
54.46
54.4574
54.4548
54.4522
54.4496
54.447
54.4444
54.4418
54.4392
54.4365
54.4339
54.4313
54.4287
54.4261
54.4235
54.4209
54.4183
54.4157
54.4131
54.4105
54.4079
54.4053
54.4027
54.4001
54.3975
54.3949
54.3923
54.3897
54.3871
54.3845
54.382
54.3794
54.3768
54.3742
54.3716
54.369
54.3664
54.3638
54.3612
54.3586
54.356
54.3534
54.3508
54.3482
54.3456
54.3431
54.3405
54.3379
54.3353
54.3327
54.3301
54.3275
54.3249
54.3223
54.3198
54.3172
54.3146
54.312
54.3094
54.3068
54.3042
54.3017
54.2991
54.2965
54.2939
54.2913
54.2887
54.2862
54.2836
54.281
54.2784
54.2758
54.2733
54.2707
54.2681
54.2655
54.2629
54.2604
54.2578
54.2552
54.2526
54.25
54.2475
54.2449
54.2423
54.2397
54.2372
54.2346
54.232
54.2294
54.2269
54.2243
54.2217
54.2192
54.2166
54.214
54.2114
54.2089
54.2063
54.2037
54.2012
54.1986
54.196
54.1934
54.1909
54.1883
54.1857
54.1832
54.1806
54.178
54.1755
54.1729
54.1703
54.1678
54.1652
54.1626
54.1601
54.1575
54.155
54.1524
54.1498
54.1473
54.1447
54.1421
54.1396
54.137
54.1345
54.1319
54.1293
54.1268
54.1242
54.1217
54.1191
54.1165
54.114
54.1114
54.1089
54.1063
54.1038
54.1012
54.0986
54.0961
54.0935
54.091
54.0884
54.0859
54.0833
54.0808
54.0782
54.0757
54.0731
54.0706
54.068
54.0655
54.0629
54.0604
54.0578
54.0553
54.0527
54.0502
54.0476
54.0451
54.0425
54.04
54.0374
54.0349
54.0323
54.0298
54.0272
54.0247
54.0222
54.0196
54.0171
54.0145
54.012
54.0094
54.0069
54.0044
54.0018
53.9993
53.9967
53.9942
53.9917
53.9891
53.9866
53.984
53.9815
53.979
53.9764
53.9739
53.9713
53.9688
53.9663
53.9637
53.9612
53.9587
53.9561
53.9536
53.9511
53.9485
53.946
53.9435
53.9409
53.9384
53.9359
53.9333
53.9308
53.9283
53.9257
53.9232
53.9207
53.9182
53.9156
53.9131
53.9106
53.908
53.9055
53.903
53.9005
53.8979
53.8954
53.8929
53.8904
53.8878
53.8853
53.8828
53.8803
53.8777
53.8752
53.8727
53.8702
53.8676
53.8651
53.8626
53.8601
53.8576
53.855
53.8525
53.85
53.8475
53.845
53.8424
53.8399
53.8374
53.8349
53.8324
53.8299
53.8273
53.8248
53.8223
53.8198
53.8173
53.8148
53.8122
53.8097
53.8072
53.8047
53.8022
53.7997
53.7972
53.7947
53.7922
53.7896
53.7871
53.7846
53.7821
53.7796
53.7771
53.7746
53.7721
53.7696
53.7671
53.7646
53.762
53.7595
53.757
53.7545
53.752
53.7495
53.747
53.7445
53.742
53.7395
53.737
53.7345
53.732
53.7295
53.727
53.7245
53.722
53.7195
53.717
53.7145
53.712
53.7095
53.707
53.7045
53.702
53.6995
53.697
53.6945
53.692
53.6895
53.687
53.6845
53.682
53.6795
53.677
53.6745
53.672
53.6696
53.6671
53.6646
53.6621
53.6596
53.6571
53.6546
53.6521
53.6496
53.6471
53.6446
53.6421
53.6397
53.6372
53.6347
53.6322
53.6297
53.6272
53.6247
53.6222
53.6198
53.6173
53.6148
53.6123
53.6098
53.6073
53.6049
53.6024
53.5999
53.5974
53.5949
53.5924
53.59
53.5875
53.585
53.5825
53.58
53.5776
53.5751
53.5726
53.5701
53.5676
53.5652
53.5627
53.5602
53.5577
53.5552
53.5528
53.5503
53.5478
53.5453
53.5429
53.5404
53.5379
53.5354
53.533
53.5305
53.528
53.5256
53.5231
53.5206
53.5181
53.5157
53.5132
53.5107
53.5083
53.5058
53.5033
53.5009
53.4984
53.4959
53.4935
53.491
53.4885
53.4861
53.4836
53.4811
53.4787
53.4762
53.4737
53.4713
53.4688
53.4663
53.4639
53.4614
53.4589
53.4565
53.454
53.4516
53.4491
53.4466
53.4442
53.4417
53.4393
53.4368
53.4343
53.4319
53.4294
53.427
53.4245
53.422
53.4196
53.4171
53.4147
53.4122
53.4098
53.4073
53.4049
53.4024
53.3999
53.3975
53.395
53.3926
53.3901
53.3877
53.3852
53.3828
53.3803
53.3779
53.3754
53.373
53.3705
53.3681
53.3656
53.3632
53.3607
53.3583
53.3558
53.3534
53.3509
53.3485
53.3461
53.3436
53.3412
53.3387
53.3363
53.3338
53.3314
53.3289
53.3265
53.3241
53.3216
53.3192
53.3167
53.3143
53.3118
53.3094
53.307
53.3045
53.3021
53.2996
53.2972
53.2948
53.2923
53.2899
53.2875
53.285
53.2826
53.2801
53.2777
53.2753
53.2728
53.2704
53.268
53.2655
53.2631
53.2607
53.2582
53.2558
53.2534
53.2509
53.2485
53.2461
53.2436
53.2412
53.2388
53.2364
53.2339
53.2315
53.2291
53.2266
53.2242
53.2218
53.2194
53.2169
53.2145
53.2121
53.2097
53.2072
53.2048
53.2024
53.2
53.1975
53.1951
53.1927
53.1903
53.1878
53.1854
53.183
53.1806
53.1781
53.1757
53.1733
53.1709
53.1685
53.166
53.1636
53.1612
53.1588
53.1564
53.154
53.1515
53.1491
53.1467
53.1443
53.1419
53.1395
53.137
53.1346
53.1322
53.1298
53.1274
53.125
53.1226
53.1201
53.1177
53.1153
53.1129
53.1105
53.1081
53.1057
53.1033
53.1009
53.0984
53.096
53.0936
53.0912
53.0888
53.0864
53.084
53.0816
53.0792
53.0768
53.0744
53.072
53.0696
53.0672
53.0648
53.0623
53.0599
53.0575
53.0551
53.0527
53.0503
53.0479
53.0455
53.0431
53.0407
53.0383
53.0359
53.0335
53.0311
53.0287
53.0263
53.0239
53.0215
53.0191
53.0167
53.0143
53.0119
53.0095
53.0072
53.0048
53.0024
53
52.9976
52.9952
52.9928
52.9904
52.988
52.9856
52.9832
52.9808
52.9784
52.976
52.9736
52.9713
52.9689
52.9665
52.9641
52.9617
52.9593
52.9569
52.9545
52.9521
52.9498
52.9474
52.945
52.9426
52.9402
52.9378
52.9354
52.9331
52.9307
52.9283
52.9259
52.9235
52.9211
52.9188
52.9164
52.914
52.9116
52.9092
52.9068
52.9045
52.9021
52.8997
52.8973
52.8949
52.8926
52.8902
52.8878
52.8854
52.8831
52.8807
52.8783
52.8759
52.8735
52.8712
52.8688
52.8664
52.864
52.8617
52.8593
52.8569
52.8546
52.8522
52.8498
52.8474
52.8451
52.8427
52.8403
52.8379
52.8356
52.8332
52.8308
52.8285
52.8261
52.8237
52.8214
52.819
52.8166
52.8143
52.8119
52.8095
52.8072
52.8048
52.8024
52.8001
52.7977
52.7953
52.793
52.7906
52.7882
52.7859
52.7835
52.7812
52.7788
52.7764
52.7741
52.7717
52.7694
52.767
52.7646
52.7623
52.7599
52.7576
52.7552
52.7528
52.7505
52.7481
52.7458
52.7434
52.7411
52.7387
52.7363
52.734
52.7316
52.7293
52.7269
52.7246
52.7222
52.7199
52.7175
52.7152
52.7128
52.7105
52.7081
52.7058
52.7034
52.7011
52.6987
52.6964
52.694
52.6917
52.6893
52.687
52.6846
52.6823
52.6799
52.6776
52.6752
52.6729
52.6705
52.6682
52.6658
52.6635
52.6612
52.6588
52.6565
52.6541
52.6518
52.6494
52.6471
52.6448
52.6424
52.6401
52.6377
52.6354
52.633
52.6307
52.6284
52.626
52.6237
52.6214
52.619
52.6167
52.6143
52.612
52.6097
52.6073
52.605
52.6027
52.6003
52.598
52.5957
52.5933
52.591
52.5887
52.5863
52.584
52.5817
52.5793
52.577
52.5747
52.5723
52.57
52.5677
52.5653
52.563
52.5607
52.5584
52.556
52.5537
52.5514
52.549
52.5467
52.5444
52.5421
52.5397
52.5374
52.5351
52.5328
52.5304
52.5281
52.5258
52.5235
52.5211
52.5188
52.5165
52.5142
52.5119
52.5095
52.5072
52.5049
52.5026
52.5003
52.4979
52.4956
52.4933
52.491
52.4887
52.4863
52.484
52.4817
52.4794
52.4771
52.4748
52.4724
52.4701
52.4678
52.4655
52.4632
52.4609
52.4586
52.4562
52.4539
52.4516
52.4493
52.447
52.4447
52.4424
52.4401
52.4377
52.4354
52.4331
52.4308
52.4285
52.4262
52.4239
52.4216
52.4193
52.417
52.4147
52.4124
52.41
52.4077
52.4054
52.4031
52.4008
52.3985
52.3962
52.3939
52.3916
52.3893
52.387
52.3847
52.3824
52.3801
52.3778
52.3755
52.3732
52.3709
52.3686
52.3663
52.364
52.3617
52.3594
52.3571
52.3548
52.3525
52.3502
52.3479
52.3456
52.3433
52.341
52.3387
52.3364
52.3341
52.3318
52.3295
52.3273
52.325
52.3227
52.3204
52.3181
52.3158
52.3135
52.3112
52.3089
52.3066
52.3043
52.302
52.2998
52.2975
52.2952
52.2929
52.2906
52.2883
52.286
52.2837
52.2815
52.2792
52.2769
52.2746
52.2723
52.27
52.2677
52.2655
52.2632
52.2609
52.2586
52.2563
52.254
52.2518
52.2495
52.2472
52.2449
52.2426
52.2403
52.2381
52.2358
52.2335
52.2312
52.229
52.2267
52.2244
52.2221
52.2198
52.2176
52.2153
52.213
52.2107
52.2085
52.2062
52.2039
52.2016
52.1994
52.1971
52.1948
52.1925
52.1903
52.188
52.1857
52.1834
52.1812
52.1789
52.1766
52.1744
52.1721
52.1698
52.1676
52.1653
52.163
52.1607
52.1585
52.1562
52.1539
52.1517
52.1494
52.1471
52.1449
52.1426
52.1404
52.1381
52.1358
52.1336
52.1313
52.129
52.1268
52.1245
52.1222
52.12
52.1177
52.1155
52.1132
52.1109
52.1087
52.1064
52.1042
52.1019
52.0996
52.0974
52.0951
52.0929
52.0906
52.0883
52.0861
52.0838
52.0816
52.0793
52.0771
52.0748
52.0726
52.0703
52.068
52.0658
52.0635
52.0613
52.059
52.0568
52.0545
52.0523
52.05
52.0478
52.0455
52.0433
52.041
52.0388
52.0365
52.0343
52.032
52.0298
52.0275
52.0253
52.023
52.0208
52.0185
52.0163
52.0141
52.0118
52.0096
52.0073
52.0051
52.0028
52.0006
51.9983
51.9961
51.9939
51.9916
51.9894
51.9871
51.9849
51.9826
51.9804
51.9782
51.9759
51.9737
51.9714
51.9692
51.967
51.9647
51.9625
51.9603
51.958
51.9558
51.9535
51.9513
51.9491
51.9468
51.9446
51.9424
51.9401
51.9379
51.9357
51.9334
51.9312
51.929
51.9267
51.9245
51.9223
51.92
51.9178
51.9156
51.9133
51.9111
51.9089
51.9067
51.9044
51.9022
51.9
51.8977
51.8955
51.8933
51.8911
51.8888
51.8866
51.8844
51.8822
51.8799
51.8777
51.8755
51.8733
51.871
51.8688
51.8666
51.8644
51.8621
51.8599
51.8577
51.8555
51.8533
51.851
51.8488
51.8466
51.8444
51.8422
51.8399
51.8377
51.8355
51.8333
51.8311
51.8288
51.8266
51.8244
51.8222
51.82
51.8178
51.8156
51.8133
51.8111
51.8089
51.8067
51.8045
51.8023
51.8001
51.7978
51.7956
51.7934
51.7912
51.789
51.7868
51.7846
51.7824
51.7802
51.7779
51.7757
51.7735
51.7713
51.7691
51.7669
51.7647
51.7625
51.7603
51.7581
51.7559
51.7537
51.7515
51.7493
51.7471
51.7448
51.7426
51.7404
51.7382
51.736
51.7338
51.7316
51.7294
51.7272
51.725
51.7228
51.7206
51.7184
51.7162
51.714
51.7118
51.7096
51.7074
51.7052
51.703
51.7008
51.6986
51.6964
51.6942
51.692
51.6899
51.6877
51.6855
51.6833
51.6811
51.6789
51.6767
51.6745
51.6723
51.6701
51.6679
51.6657
51.6635
51.6613
51.6592
51.657
51.6548
51.6526
51.6504
51.6482
51.646
51.6438
51.6416
51.6394
51.6373
51.6351
51.6329
51.6307
51.6285
51.6263
51.6241
51.622
51.6198
51.6176
51.6154
51.6132
51.611
51.6089
51.6067
51.6045
51.6023
51.6001
51.5979
51.5958
51.5936
51.5914
51.5892
51.587
51.5849
51.5827
51.5805
51.5783
51.5762
51.574
51.5718
51.5696
51.5674
51.5653
51.5631
51.5609
51.5587
51.5566
51.5544
51.5522
51.55
51.5479
51.5457
51.5435
51.5414
51.5392
51.537
51.5348
51.5327
51.5305
51.5283
51.5262
51.524
51.5218
51.5196
51.5175
51.5153
51.5131
51.511
51.5088
51.5066
51.5045
51.5023
51.5001
51.498
51.4958
51.4936
51.4915
51.4893
51.4872
51.485
51.4828
51.4807
51.4785
51.4763
51.4742
51.472
51.4699
51.4677
51.4655
51.4634
51.4612
51.4591
51.4569
51.4547
51.4526
51.4504
51.4483
51.4461
51.4439
51.4418
51.4396
51.4375
51.4353
51.4332
51.431
51.4289
51.4267
51.4245
51.4224
51.4202
51.4181
51.4159
51.4138
51.4116
51.4095
51.4073
51.4052
51.403
51.4009
51.3987
51.3966
51.3944
51.3923
51.3901
51.388
51.3858
51.3837
51.3815
51.3794
51.3772
51.3751
51.3729
51.3708
51.3687
51.3665
51.3644
51.3622
51.3601
51.3579
51.3558
51.3537
51.3515
51.3494
51.3472
51.3451
51.3429
51.3408
51.3387
51.3365
51.3344
51.3322
51.3301
51.328
51.3258
51.3237
51.3215
51.3194
51.3173
51.3151
51.313
51.3109
51.3087
51.3066
51.3045
51.3023
51.3002
51.2981
51.2959
51.2938
51.2917
51.2895
51.2874
51.2853
51.2831
51.281
51.2789
51.2767
51.2746
51.2725
51.2703
51.2682
51.2661
51.264
51.2618
51.2597
51.2576
51.2554
51.2533
51.2512
51.2491
51.2469
51.2448
51.2427
51.2406
51.2384
51.2363
51.2342
51.2321
51.2299
51.2278
51.2257
51.2236
51.2215
51.2193
51.2172
51.2151
51.213
51.2108
51.2087
51.2066
51.2045
51.2024
51.2003
51.1981
51.196
51.1939
51.1918
51.1897
51.1875