# vtk DataFile Version 2.0
vtk output
ASCII
DATASET STRUCTURED_GRID
DIMENSIONS 50 10 30
POINTS 15000 float
0 0 0
1 0 0
2 0 0
3 0 0
4 0 0
5 0 0
6 0 0
7 0 0
8 0 0
9 0 0
10 0 0
11 0 0
12 0 0
13 0 0
14 0 0
15 0 0
16 0 0
17 0 0
18 0 0
19 0 0
20 0 0
21 0 0
22 0 0
23 0 0
24 0 0
25 0 0
26 0 0
27 0 0
28 0 0
29 0 0
30 0 0
31 0 0
32 0 0
33 0 0
34 0 0
35 0 0
36 0 0
37 0 0
38 0 0
39 0 0
40 0 0
41 0 0
42 0 0
43 0 0
44 0 0
45 0 0
46 0 0
47 0 0
48 0 0
49 0 0
0 1 0
1 1 0
2 1 0
3 1 0
4 1 0
5 1 0
6 1 0
7 1 0
8 1 0
9 1 0
10 1 0
11 1 0
12 1 0
13 1 0
14 1 0
15 1 0
16 1 0
17 1 0
18 1 0
19 1 0
20 1 0
21 1 0
22 1 0
23 1 0
24 1 0
25 1 0
26 1 0
27 1 0
28 1 0
29 1 0
30 1 0
31 1 0
32 1 0
33 1 0
34 1 0
35 1 0
36 1 0
37 1 0
38 1 0
39 1 0
40 1 0
41 1 0
42 1 0
43 1 0
44 1 0
45 1 0
46 1 0
47 1 0
48 1 0
49 1 0
0 2 0
1 2 0
2 2 0
3 2 0
4 2 0
5 2 0
6 2 0
7 2 0
8 2 0
9 2 0
10 2 0
11 2 0
12 2 0
13 2 0
14 2 0
15 2 0
16 2 0
17 2 0
18 2 0
19 2 0
20 2 0
21 2 0
22 2 0
23 2 0
24 2 0
25 2 0
26 2 0
27 2 0
28 2 0
29 2 0
30 2 0
31 2 0
32 2 0
33 2 0
34 2 0
35 2 0
36 2 0
37 2 0
38 2 0
39 2 0
40 2 0
41 2 0
42 2 0
43 2 0
44 2 0
45 2 0
46 2 0
47 2 0
48 2 0
49 2 0
0 3 0
1 3 0
2 3 0
3 3 0
4 3 0
5 3 0
6 3 0
7 3 0
8 3 0
9 3 0
10 3 0
11 3 0
12 3 0
13 3 0
14 3 0
15 3 0
16 3 0
17 3 0
18 3 0
19 3 0
20 3 0
21 3 0
22 3 0
23 3 0
24 3 0
25 3 0
26 3 0
27 3 0
28 3 0
29 3 0
30 3 0
31 3 0
32 3 0
33 3 0
34 3 0
35 3 0
36 3 0
37 3 0
38 3 0
39 3 0
40 3 0
41 3 0
42 3 0
43 3 0
44 3 0
45 3 0
46 3 0
47 3 0
48 3 0
49 3 0
0 4 0
1 4 0
2 4 0
3 4 0
4 4 0
5 4 0
6 4 0
7 4 0
8 4 0
9 4 0
10 4 0
11 4 0
12 4 0
13 4 0
14 4 0
15 4 0
16 4 0
17 4 0
18 4 0
19 4 0
20 4 0
21 4 0
22 4 0
23 4 0
24 4 0
25 4 0
26 4 0
27 4 0
28 4 0
29 4 0
30 4 0
31 4 0
32 4 0
33 4 0
34 4 0
35 4 0
36 4 0
37 4 0
38 4 0
39 4 0
40 4 0
41 4 0
42 4 0
43 4 0
44 4 0
45 4 0
46 4 0
47 4 0
48 4 0
49 4 0
0 5 0
1 5 0
2 5 0
3 5 0
4 5 0
5 5 0
6 5 0
7 5 0
8 5 0
9 5 0
10 5 0
11 5 0
12 5 0
13 5 0
14 5 0
15 5 0
16 5 0
17 5 0
18 5 0
19 5 0
20 5 0
21 5 0
22 5 0
23 5 0
24 5 0
25 5 0
26 5 0
27 5 0
28 5 0
29 5 0
30 5 0
31 5 0
32 5 0
33 5 0
34 5 0
35 5 0
36 5 0
37 5 0
38 5 0
39 5 0
40 5 0
41 5 0
42 5 0
43 5 0
44 5 0
45 5 0
46 5 0
47 5 0
48 5 0
49 5 0
0 6 0
1 6 0
2 6 0
3 6 0
4 6 0
5 6 0
6 6 0
7 6 0
8 6 0
9 6 0
10 6 0
11 6 0
12 6 0
13 6 0
14 6 0
15 6 0
16 6 0
17 6 0
18 6 0
19 6 0
20 6 0
21 6 0
22 6 0
23 6 0
24 6 0
25 6 0
26 6 0
27 6 0
28 6 0
29 6 0
30 6 0
31 6 0
32 6 0
33 6 0
34 6 0
35 6 0
36 6 0
37 6 0
38 6 0
39 6 0
40 6 0
41 6 0
42 6 0
43 6 0
44 6 0
45 6 0
46 6 0
47 6 0
48 6 0
49 6 0
0 7 0
1 7 0
2 7 0
3 7 0
4 7 0
5 7 0
6 7 0
7 7 0
8 7 0
9 7 0
10 7 0
11 7 0
12 7 0
13 7 0
14 7 0
15 7 0
16 7 0
17 7 0
18 7 0
19 7 0
20 7 0
21 7 0
22 7 0
23 7 0
24 7 0
25 7 0
26 7 0
27 7 0
28 7 0
29 7 0
30 7 0
31 7 0
32 7 0
33 7 0
34 7 0
35 7 0
36 7 0
37 7 0
38 7 0
39 7 0
40 7 0
41 7 0
42 7 0
43 7 0
44 7 0
45 7 0
46 7 0
47 7 0
48 7 0
49 7 0
0 8 0
1 8 0
2 8 0
3 8 0
4 8 0
5 8 0
6 8 0
7 8 0
8 8 0
9 8 0
10 8 0
11 8 0
12 8 0
13 8 0
14 8 0
15 8 0
16 8 0
17 8 0
18 8 0
19 8 0
20 8 0
21 8 0
22 8 0
23 8 0
24 8 0
25 8 0
26 8 0
27 8 0
28 8 0
29 8 0
30 8 0
31 8 0
32 8 0
33 8 0
34 8 0
35 8 0
36 8 0
37 8 0
38 8 0
39 8 0
40 8 0
41 8 0
42 8 0
43 8 0
44 8 0
45 8 0
46 8 0
47 8 0
48 8 0
49 8 0
0 9 0
1 9 0
2 9 0
3 9 0
4 9 0
5 9 0
6 9 0
7 9 0
8 9 0
9 9 0
10 9 0
11 9 0
12 9 0
13 9 0
14 9 0
15 9 0
16 9 0
17 9 0
18 9 0
19 9 0
20 9 0
21 9 0
22 9 0
23 9 0
24 9 0
25 9 0
26 9 0
27 9 0
28 9 0
29 9 0
30 9 0
31 9 0
32 9 0
33 9 0
34 9 0
35 9 0
36 9 0
37 9 0
38 9 0
39 9 0
40 9 0
41 9 0
42 9 0
43 9 0
44 9 0
45 9 0
46 9 0
47 9 0
48 9 0
49 9 0
0 0 1
1 0 1
2 0 1
3 0 1
4 0 1
5 0 1
6 0 1
7 0 1
8 0 1
9 0 1
10 0 1
11 0 1
12 0 1
13 0 1
14 0 1
15 0 1
16 0 1
17 0 1
18 0 1
19 0 1
20 0 1
21 0 1
22 0 1
23 0 1
24 0 1
25 0 1
26 0 1
27 0 1
28 0 1
29 0 1
30 0 1
31 0 1
32 0 1
33 0 1
34 0 1
35 0 1
36 0 1
37 0 1
38 0 1
39 0 1
40 0 1
41 0 1
42 0 1
43 0 1
44 0 1
45 0 1
46 0 1
47 0 1
48 0 1
49 0 1
0 1 1
1 1 1
2 1 1
3 1 1
4 1 1
5 1 1
6 1 1
7 1 1
8 1 1
9 1 1
10 1 1
11 1 1
12 1 1
13 1 1
14 1 1
15 1 1
16 1 1
17 1 1
18 1 1
19 1 1
20 1 1
21 1 1
22 1 1
23 1 1
24 1 1
25 1 1
26 1 1
27 1 1
28 1 1
29 1 1
30 1 1
31 1 1
32 1 1
33 1 1
34 1 1
35 1 1
36 1 1
37 1 1
38 1 1
39 1 1
40 1 1
41 1 1
42 1 1
43 1 1
44 1 1
45 1 1
46 1 1
47 1 1
48 1 1
49 1 1
0 2 1
1 2 1
2 2 1
3 2 1
4 2 1
5 2 1
6 2 1
7 2 1
8 2 1
9 2 1
10 2 1
11 2 1
12 2 1
13 2 1
14 2 1
15 2 1
16 2 1
17 2 1
18 2 1
19 2 1
20 2 1
21 2 1
22 2 1
23 2 1
24 2 1
25 2 1
26 2 1
27 2 1
28 2 1
29 2 1
30 2 1
31 2 1
32 2 1
33 2 1
34 2 1
35 2 1
36 2 1
37 2 1
38 2 1
39 2 1
40 2 1
41 2 1
42 2 1
43 2 1
44 2 1
45 2 1
46 2 1
47 2 1
48 2 1
49 2 1
0 3 1
1 3 1
2 3 1
3 3 1
4 3 1
5 3 1
6 3 1
7 3 1
8 3 1
9 3 1
10 3 1
11 3 1
12 3 1
13 3 1
14 3 1
15 3 1
16 3 1
17 3 1
18 3 1
19 3 1
20 3 1
21 3 1
22 3 1
23 3 1
24 3 1
25 3 1
26 3 1
27 3 1
28 3 1
29 3 1
30 3 1
31 3 1
32 3 1
33 3 1
34 3 1
35 3 1
36 3 1
37 3 1
38 3 1
39 3 1
40 3 1
41 3 1
42 3 1
43 3 1
44 3 1
45 3 1
46 3 1
47 3 1
48 3 1
49 3 1
0 4 1
1 4 1
2 4 1
3 4 1
4 4 1
5 4 1
6 4 1
7 4 1
8 4 1
9 4 1
10 4 1
11 4 1
12 4 1
13 4 1
14 4 1
15 4 1
16 4 1
17 4 1
18 4 1
19 4 1
20 4 1
21 4 1
22 4 1
23 4 1
24 4 1
25 4 1
26 4 1
27 4 1
28 4 1
29 4 1
30 4 1
31 4 1
32 4 1
33 4 1
34 4 1
35 4 1
36 4 1
37 4 1
38 4 1
39 4 1
40 4 1
41 4 1
42 4 1
43 4 1
44 4 1
45 4 1
46 4 1
47 4 1
48 4 1
49 4 1
0 5 1
1 5 1
2 5 1
3 5 1
4 5 1
5 5 1
6 5 1
7 5 1
8 5 1
9 5 1
10 5 1
11 5 1
12 5 1
13 5 1
14 5 1
15 5 1
16 5 1
17 5 1
18 5 1
19 5 1
20 5 1
21 5 1
22 5 1
23 5 1
24 5 1
25 5 1
26 5 1
27 5 1
28 5 1
29 5 1
30 5 1
31 5 1
32 5 1
33 5 1
34 5 1
35 5 1
36 5 1
37 5 1
38 5 1
39 5 1
40 5 1
41 5 1
42 5 1
43 5 1
44 5 1
45 5 1
46 5 1
47 5 1
48 5 1
49 5 1
0 6 1
1 6 1
2 6 1
3 6 1
4 6 1
5 6 1
6 6 1
7 6 1
8 6 1
9 6 1
10 6 1
11 6 1
12 6 1
13 6 1
14 6 1
15 6 1
16 6 1
17 6 1
18 6 1
19 6 1
20 6 1
21 6 1
22 6 1
23 6 1
24 6 1
25 6 1
26 6 1
27 6 1
28 6 1
29 6 1
30 6 1
31 6 1
32 6 1
33 6 1
34 6 1
35 6 1
36 6 1
37 6 1
38 6 1
39 6 1
40 6 1
41 6 1
42 6 1
43 6 1
44 6 1
45 6 1
46 6 1
47 6 1
48 6 1
49 6 1
0 7 1
1 7 1
2 7 1
3 7 1
4 7 1
5 7 1
6 7 1
7 7 1
8 7 1
9 7 1
10 7 1
11 7 1
12 7 1
13 7 1
14 7 1
15 7 1
16 7 1
17 7 1
18 7 1
19 7 1
20 7 1
21 7 1
22 7 1
23 7 1
24 7 1
25 7 1
26 7 1
27 7 1
28 7 1
29 7 1
30 7 1
31 7 1
32 7 1
33 7 1
34 7 1
35 7 1
36 7 1
37 7 1
38 7 1
39 7 1
40 7 1
41 7 1
42 7 1
43 7 1
44 7 1
45 7 1
46 7 1
47 7 1
48 7 1
49 7 1
0 8 1
1 8 1
2 8 1
3 8 1
4 8 1
5 8 1
6 8 1
7 8 1
8 8 1
9 8 1
10 8 1
11 8 1
12 8 1
13 8 1
14 8 1
15 8 1
16 8 1
17 8 1
18 8 1
19 8 1
20 8 1
21 8 1
22 8 1
23 8 1
24 8 1
25 8 1
26 8 1
27 8 1
28 8 1
29 8 1
30 8 1
31 8 1
32 8 1
33 8 1
34 8 1
35 8 1
36 8 1
37 8 1
38 8 1
39 8 1
40 8 1
41 8 1
42 8 1
43 8 1
44 8 1
45 8 1
46 8 1
47 8 1
48 8 1
49 8 1
0 9 1
1 9 1
2 9 1
3 9 1
4 9 1
5 9 1
6 9 1
7 9 1
8 9 1
9 9 1
10 9 1
11 9 1
12 9 1
13 9 1
14 9 1
15 9 1
16 9 1
17 9 1
18 9 1
19 9 1
20 9 1
21 9 1
22 9 1
23 9 1
24 9 1
25 9 1
26 9 1
27 9 1
28 9 1
29 9 1
30 9 1
31 9 1
32 9 1
33 9 1
34 9 1
35 9 1
36 9 1
37 9 1
38 9 1
39 9 1
40 9 1
41 9 1
42 9 1
43 9 1
44 9 1
45 9 1
46 9 1
47 9 1
48 9 1
49 9 1
0 0 2
1 0 2
2 0 2
3 0 2
4 0 2
5 0 2
6 0 2
7 0 2
8 0 2
9 0 2
10 0 2
11 0 2
12 0 2
13 0 2
14 0 2
15 0 2
16 0 2
17 0 2
18 0 2
19 0 2
20 0 2
21 0 2
22 0 2
23 0 2
24 0 2
25 0 2
26 0 2
27 0 2
28 0 2
29 0 2
30 0 2
31 0 2
32 0 2
33 0 2
34 0 2
35 0 2
36 0 2
37 0 2
38 0 2
39 0 2
40 0 2
41 0 2
42 0 2
43 0 2
44 0 2
45 0 2
46 0 2
47 0 2
48 0 2
49 0 2
0 1 2
1 1 2
2 1 2
3 1 2
4 1 2
5 1 2
6 1 2
7 1 2
8 1 2
9 1 2
10 1 2
11 1 2
12 1 2
13 1 2
14 1 2
15 1 2
16 1 2
17 1 2
18 1 2
19 1 2
20 1 2
21 1 2
22 1 2
23 1 2
24 1 2
25 1 2
26 1 2
27 1 2
28 1 2
29 1 2
30 1 2
31 1 2
32 1 2
33 1 2
34 1 2
35 1 2
36 1 2
37 1 2
38 1 2
39 1 2
40 1 2
41 1 2
42 1 2
43 1 2
44 1 2
45 1 2
46 1 2
47 1 2
48 1 2
49 1 2
0 2 2
1 2 2
2 2 2
3 2 2
4 2 2
5 2 2
6 2 2
7 2 2
8 2 2
9 2 2
10 2 2
11 2 2
12 2 2
13 2 2
14 2 2
15 2 2
16 2 2
17 2 2
18 2 2
19 2 2
20 2 2
21 2 2
22 2 2
23 2 2
24 2 2
25 2 2
26 2 2
27 2 2
28 2 2
29 2 2
30 2 2
31 2 2
32 2 2
33 2 2
34 2 2
35 2 2
36 2 2
37 2 2
38 2 2
39 2 2
40 2 2
41 2 2
42 2 2
43 2 2
44 2 2
45 2 2
46 2 2
47 2 2
48 2 2
49 2 2
0 3 2
1 3 2
2 3 2
3 3 2
4 3 2
5 3 2
6 3 2
7 3 2
8 3 2
9 3 2
10 3 2
11 3 2
12 3 2
13 3 2
14 3 2
15 3 2
16 3 2
17 3 2
18 3 2
19 3 2
20 3 2
21 3 2
22 3 2
23 3 2
24 3 2
25 3 2
26 3 2
27 3 2
28 3 2
29 3 2
30 3 2
31 3 2
32 3 2
33 3 2
34 3 2
35 3 2
36 3 2
37 3 2
38 3 2
39 3 2
40 3 2
41 3 2
42 3 2
43 3 2
44 3 2
45 3 2
46 3 2
47 3 2
48 3 2
49 3 2
0 4 2
1 4 2
2 4 2
3 4 2
4 4 2
5 4 2
6 4 2
7 4 2
8 4 2
9 4 2
10 4 2
11 4 2
12 4 2
13 4 2
14 4 2
15 4 2
16 4 2
17 4 2
18 4 2
19 4 2
20 4 2
21 4 2
22 4 2
23 4 2
24 4 2
25 4 2
26 4 2
27 4 2
28 4 2
29 4 2
30 4 2
31 4 2
32 4 2
33 4 2
34 4 2
35 4 2
36 4 2
37 4 2
38 4 2
39 4 2
40 4 2
41 4 2
42 4 2
43 4 2
44 4 2
45 4 2
46 4 2
47 4 2
48 4 2
49 4 2
0 5 2
1 5 2
2 5 2
3 5 2
4 5 2
5 5 2
6 5 2
7 5 2
8 5 2
9 5 2
10 5 2
11 5 2
12 5 2
13 5 2
14 5 2
15 5 2
16 5 2
17 5 2
18 5 2
19 5 2
20 5 2
21 5 2
22 5 2
23 5 2
24 5 2
25 5 2
26 5 2
27 5 2
28 5 2
29 5 2
30 5 2
31 5 2
32 5 2
33 5 2
34 5 2
35 5 2
36 5 2
37 5 2
38 5 2
39 5 2
40 5 2
41 5 2
42 5 2
43 5 2
44 5 2
45 5 2
46 5 2
47 5 2
48 5 2
49 5 2
0 6 2
1 6 2
2 6 2
3 6 2
4 6 2
5 6 2
6 6 2
7 6 2
8 6 2
9 6 2
10 6 2
11 6 2
12 6 2
13 6 2
14 6 2
15 6 2
16 6 2
17 6 2
18 6 2
19 6 2
20 6 2
21 6 2
22 6 2
23 6 2
24 6 2
25 6 2
26 6 2
27 6 2
28 6 2
29 6 2
30 6 2
31 6 2
32 6 2
33 6 2
34 6 2
35 6 2
36 6 2
37 6 2
38 6 2
39 6 2
40 6 2
41 6 2
42 6 2
43 6 2
44 6 2
45 6 2
46 6 2
47 6 2
48 6 2
49 6 2
0 7 2
1 7 2
2 7 2
3 7 2
4 7 2
5 7 2
6 7 2
7 7 2
8 7 2
9 7 2
10 7 2
11 7 2
12 7 2
13 7 2
14 7 2
15 7 2
16 7 2
17 7 2
18 7 2
19 7 2
20 7 2
21 7 2
22 7 2
23 7 2
24 7 2
25 7 2
26 7 2
27 7 2
28 7 2
29 7 2
30 7 2
31 7 2
32 7 2
33 7 2
34 7 2
35 7 2
36 7 2
37 7 2
38 7 2
39 7 2
40 7 2
41 7 2
42 7 2
43 7 2
44 7 2
45 7 2
46 7 2
47 7 2
48 7 2
49 7 2
0 8 2
1 8 2
2 8 2
3 8 2
4 8 2
5 8 2
6 8 2
7 8 2
8 8 2
9 8 2
10 8 2
11 8 2
12 8 2
13 8 2
14 8 2
15 8 2
16 8 2
17 8 2
18 8 2
19 8 2
20 8 2
21 8 2
22 8 2
23 8 2
24 8 2
25 8 2
26 8 2
27 8 2
28 8 2
29 8 2
30 8 2
31 8 2
32 8 2
33 8 2
34 8 2
35 8 2
36 8 2
37 8 2
38 8 2
39 8 2
40 8 2
41 8 2
42 8 2
43 8 2
44 8 2
45 8 2
46 8 2
47 8 2
48 8 2
49 8 2
0 9 2
1 9 2
2 9 2
3 9 2
4 9 2
[...]
POINT_DATA 15000
SCALARS sol353 float
LOOKUP_TABLE default
58.4372
58.4342
58.4312
58.4281
58.4251
58.422
58.419
58.4159
58.4129
58.4098
58.4068
58.4037
58.4007
58.3976
58.3946
58.3916
58.3885
58.3855
58.3824
58.3794
58.3764
58.3733
58.3703
58.3672
58.3642
58.3612
58.3581
58.3551
58.352
58.349
58.346
58.3429
58.3399
58.3369
58.3338
58.3308
58.3277
58.3247
58.3217
58.3186
58.3156
58.3126
58.3095
58.3065
58.3035
58.3005
58.2974
58.2944
58.2914
58.2883
58.2853
58.2823
58.2792
58.2762
58.2732
58.2702
58.2671
58.2641
58.2611
58.2581
58.255
58.252
58.249
58.246
58.2429
58.2399
58.2369
58.2339
58.2309
58.2278
58.2248
58.2218
58.2188
58.2158
58.2127
58.2097
58.2067
58.2037
58.2007
58.1976
58.1946
58.1916
58.1886
58.1856
58.1826
58.1795
58.1765
58.1735
58.1705
58.1675
58.1645
58.1615
58.1585
58.1554
58.1524
58.1494
58.1464
58.1434
58.1404
58.1374
58.1344
58.1314
58.1284
58.1253
58.1223
58.1193
58.1163
58.1133
58.1103
58.1073
58.1043
58.1013
58.0983
58.0953
58.0923
58.0893
58.0863
58.0833
58.0803
58.0773
58.0743
58.0713
58.0683
58.0653
58.0623
58.0593
58.0563
58.0533
58.0503
58.0473
58.0443
58.0413
58.0383
58.0353
58.0323
58.0293
58.0263
58.0233
58.0203
58.0173
58.0143
58.0114
58.0084
58.0054
58.0024
57.9994
57.9964
57.9934
57.9904
57.9874
57.9844
57.9815
57.9785
57.9755
57.9725
57.9695
57.9665
57.9635
57.9605
57.9576
57.9546
57.9516
57.9486
57.9456
57.9426
57.9397
57.9367
57.9337
57.9307
57.9277
57.9248
57.9218
57.9188
57.9158
57.9128
57.9099
57.9069
57.9039
57.9009
57.8979
57.895
57.892
57.889
57.886
57.8831
57.8801
57.8771
57.8741
57.8712
57.8682
57.8652
57.8622
57.8593
57.8563
57.8533
57.8504
57.8474
57.8444
57.8415
57.8385
57.8355
57.8325
57.8296
57.8266
57.8236
57.8207
57.8177
57.8147
57.8118
57.8088
57.8058
57.8029
57.7999
57.797
57.794
57.791
57.7881
57.7851
57.7821
57.7792
57.7762
57.7733
57.7703
57.7673
57.7644
57.7614
57.7585
57.7555
57.7525
57.7496
57.7466
57.7437
57.7407
57.7378
57.7348
57.7319
57.7289
57.7259
57.723
57.72
57.7171
57.7141
57.7112
57.7082
57.7053
57.7023
57.6994
57.6964
57.6935
57.6905
57.6876
57.6846
57.6817
57.6787
57.6758
57.6728
57.6699
57.667
57.664
57.6611
57.6581
57.6552
57.6522
57.6493
57.6463
57.6434
57.6405
57.6375
57.6346
57.6316
57.6287
57.6257
57.6228
57.6199
57.6169
57.614
57.6111
57.6081
57.6052
57.6022
57.5993
57.5964
57.5934
57.5905
57.5876
57.5846
57.5817
57.5788
57.5758
57.5729
57.57
57.567
57.5641
57.5612
57.5582
57.5553
57.5524
57.5494
57.5465
57.5436
57.5406
57.5377
57.5348
57.5319
57.5289
57.526
57.5231
57.5202
57.5172
57.5143
57.5114
57.5085
57.5055
57.5026
57.4997
57.4968
57.4938
57.4909
57.488
57.4851
57.4821
57.4792
57.4763
57.4734
57.4705
57.4675
57.4646
57.4617
57.4588
57.4559
57.453
57.45
57.4471
57.4442
57.4413
57.4384
57.4355
57.4325
57.4296
57.4267
57.4238
57.4209
57.418
57.4151
57.4122
57.4092
57.4063
57.4034
57.4005
57.3976
57.3947
57.3918
57.3889
57.386
57.3831
57.3802
57.3772
57.3743
57.3714
57.3685
57.3656
57.3627
57.3598
57.3569
57.354
57.3511
57.3482
57.3453
57.3424
57.3395
57.3366
57.3337
57.3308
57.3279
57.325
57.3221
57.3192
57.3163
57.3134
57.3105
57.3076
57.3047
57.3018
57.2989
57.296
57.2931
57.2902
57.2873
57.2844
57.2815
57.2786
57.2758
57.2729
57.27
57.2671
57.2642
57.2613
57.2584
57.2555
57.2526
57.2497
57.2468
57.244
57.2411
57.2382
57.2353
57.2324
57.2295
57.2266
57.2237
57.2209
57.218
57.2151
57.2122
57.2093
57.2064
57.2036
57.2007
57.1978
57.1949
57.192
57.1891
57.1863
57.1834
57.1805
57.1776
57.1747
57.1719
57.169
57.1661
57.1632
57.1603
57.1575
57.1546
57.1517
57.1488
57.146
57.1431
57.1402
57.1373
57.1345
57.1316
57.1287
57.1258
57.123
57.1201
57.1172
57.1144
57.1115
57.1086
57.1058
57.1029
57.1
57.0971
57.0943
57.0914
57.0885
57.0857
57.0828
57.0799
57.0771
57.0742
57.0713
57.0685
57.0656
57.0627
57.0599
57.057
57.0542
57.0513
57.0484
57.0456
57.0427
57.0398
57.037
57.0341
57.0313
57.0284
57.0255
57.0227
57.0198
57.017
57.0141
57.0113
57.0084
57.0055
57.0027
56.9998
56.997
56.9941
56.9913
56.9884
56.9856
56.9827
56.9799
56.977
56.9742
56.9713
56.9684
56.9656
56.9627
56.9599
56.957
56.9542
56.9513
56.9485
56.9457
56.9428
56.94
56.9371
56.9343
56.9314
56.9286
56.9257
56.9229
56.92
56.9172
56.9143
56.9115
56.9087
56.9058
56.903
56.9001
56.8973
56.8945
56.8916
56.8888
56.8859
56.8831
56.8803
56.8774
56.8746
56.8717
56.8689
56.8661
56.8632
56.8604
56.8576
56.8547
56.8519
56.849
56.8462
56.8434
56.8405
56.8377
56.8349
56.832
56.8292
56.8264
56.8235
56.8207
56.8179
56.8151
56.8122
56.8094
56.8066
56.8037
56.8009
56.7981
56.7953
56.7924
56.7896
56.7868
56.7839
56.7811
56.7783
56.7755
56.7726
56.7698
56.767
56.7642
56.7614
56.7585
56.7557
56.7529
56.7501
56.7472
56.7444
56.7416
56.7388
56.736
56.7331
56.7303
56.7275
56.7247
56.7219
56.7191
56.7162
56.7134
56.7106
56.7078
56.705
56.7022
56.6993
56.6965
56.6937
56.6909
56.6881
56.6853
56.6825
56.6797
56.6768
56.674
56.6712
56.6684
56.6656
56.6628
56.66
56.6572
56.6544
56.6516
56.6488
56.6459
56.6431
56.6403
56.6375
56.6347
56.6319
56.6291
56.6263
56.6235
56.6207
56.6179
56.6151
56.6123
56.6095
56.6067
56.6039
56.6011
56.5983
56.5955
56.5927
56.5899
56.5871
56.5843
56.5815
56.5787
56.5759
56.5731
56.5703
56.5675
56.5647
56.5619
56.5591
56.5563
56.5535
56.5507
56.5479
56.5452
56.5424
56.5396
56.5368
56.534
56.5312
56.5284
56.5256
56.5228
56.52
56.5172
56.5145
56.5117
56.5089
56.5061
56.5033
56.5005
56.4977
56.4949
56.4922
56.4894
56.4866
56.4838
56.481
56.4782
56.4754
56.4727
56.4699
56.4671
56.4643
56.4615
56.4588
56.456
56.4532
56.4504
56.4476
56.4449
56.4421
56.4393
56.4365
56.4337
56.431
56.4282
56.4254
56.4226
56.4199
56.4171
56.4143
56.4115
56.4088
56.406
56.4032
56.4004
56.3977
56.3949
56.3921
56.3893
56.3866
56.3838
56.381
56.3783
56.3755
56.3727
56.37
56.3672
56.3644
56.3617
56.3589
56.3561
56.3534
56.3506
56.3478
56.3451
56.3423
56.3395
56.3368
56.334
56.3312
56.3285
56.3257
56.3229
56.3202
56.3174
56.3147
56.3119
56.3091
56.3064
56.3036
56.3009
56.2981
56.2953
56.2926
56.2898
56.2871
56.2843
56.2816
56.2788
56.276
56.2733
56.2705
56.2678
56.265
56.2623
56.2595
56.2568
56.254
56.2513
56.2485
56.2457
56.243
56.2402
56.2375
56.2347
56.232
56.2292
56.2265
56.2237
56.221
56.2183
56.2155
56.2128
56.21
56.2073
56.2045
56.2018
56.199
56.1963
56.1935
56.1908
56.1881
56.1853
56.1826
56.1798
56.1771
56.1743
56.1716
56.1689
56.1661
56.1634
56.1606
56.1579
56.1552
56.1524
56.1497
56.1469
56.1442
56.1415
56.1387
56.136
56.1333
56.1305
56.1278
56.1251
56.1223
56.1196
56.1168
56.1141
56.1114
56.1086
56.1059
56.1032
56.1005
56.0977
56.095
56.0923
56.0895
56.0868
56.0841
56.0813
56.0786
56.0759
56.0732
56.0704
56.0677
56.065
56.0623
56.0595
56.0568
56.0541
56.0514
56.0486
56.0459
56.0432
56.0405
56.0377
56.035
56.0323
56.0296
56.0268
56.0241
56.0214
56.0187
56.016
56.0132
56.0105
56.0078
56.0051
56.0024
55.9997
55.9969
55.9942
55.9915
55.9888
55.9861
55.9834
55.9806
55.9779
55.9752
55.9725
55.9698
55.9671
55.9644
55.9616
55.9589
55.9562
55.9535
55.9508
55.9481
55.9454
55.9427
55.94
55.9373
55.9345
55.9318
55.9291
55.9264
55.9237
55.921
55.9183
55.9156
55.9129
55.9102
55.9075
55.9048
55.9021
55.8994
55.8967
55.894
55.8913
55.8886
55.8859
55.8832
55.8805
55.8778
55.8751
55.8724
55.8697
55.867
55.8643
55.8616
55.8589
55.8562
55.8535
55.8508
55.8481
55.8454
55.8427
55.84
55.8373
55.8346
55.8319
55.8292
55.8265
55.8238
55.8211
55.8184
55.8158
55.8131
55.8104
55.8077
55.805
55.8023
55.7996
55.7969
55.7942
55.7915
55.7889
55.7862
55.7835
55.7808
55.7781
55.7754
55.7727
55.7701
55.7674
55.7647
55.762
55.7593
55.7566
55.7539
55.7513
55.7486
55.7459
55.7432
55.7405
55.7379
55.7352
55.7325
55.7298
55.7271
55.7245
55.7218
55.7191
55.7164
55.7137
55.7111
55.7084
55.7057
55.703
55.7004
55.6977
55.695
55.6923
55.6897
55.687
55.6843
55.6816
55.679
55.6763
55.6736
55.671
55.6683
55.6656
55.6629
55.6603
55.6576
55.6549
55.6523
55.6496
55.6469
55.6443
55.6416
55.6389
55.6363
55.6336
55.6309
55.6283
55.6256
55.6229
55.6203
55.6176
55.6149
55.6123
55.6096
55.607
55.6043
55.6016
55.599
55.5963
55.5937
55.591
55.5883
55.5857
55.583
55.5804
55.5777
55.575
55.5724
55.5697
55.5671
55.5644
55.5618
55.5591
55.5564
55.5538
55.5511
55.5485
55.5458
55.5432
55.5405
55.5379
55.5352
55.5326
55.5299
55.5273
55.5246
55.522
55.5193
55.5167
55.514
55.5114
55.5087
55.5061
55.5034
55.5008
55.4981
55.4955
55.4928
55.4902
55.4875
55.4849
55.4823
55.4796
55.477
55.4743
55.4717
55.469
55.4664
55.4638
55.4611
55.4585
55.4558
55.4532
55.4505
55.4479
55.4453
55.4426
55.44
55.4373
55.4347
55.4321
55.4294
55.4268
55.4242
55.4215
55.4189
55.4163
55.4136
55.411
55.4084
55.4057
55.4031
55.4005
55.3978
55.3952
55.3926
55.3899
55.3873
55.3847
55.382
55.3794
55.3768
55.3741
55.3715
55.3689
55.3663
55.3636
55.361
55.3584
55.3557
55.3531
55.3505
55.3479
55.3452
55.3426
55.34
55.3374
55.3347
55.3321
55.3295
55.3269
55.3243
55.3216
55.319
55.3164
55.3138
55.3111
55.3085
55.3059
55.3033
55.3007
55.298
55.2954
55.2928
55.2902
55.2876
55.285
55.2823
55.2797
55.2771
55.2745
55.2719
55.2693
55.2667
55.264
55.2614
55.2588
55.2562
55.2536
55.251
55.2484
55.2458
55.2431
55.2405
55.2379
55.2353
55.2327
55.2301
55.2275
55.2249
55.2223
55.2197
55.2171
55.2144
55.2118
55.2092
55.2066
55.204
55.2014
55.1988
55.1962
55.1936
55.191
55.1884
55.1858
55.1832
55.1806
55.178
55.1754
55.1728
55.1702
55.1676
55.165
55.1624
55.1598
55.1572
55.1546
55.152
55.1494
55.1468
55.1442
55.1416
55.139
55.1364
55.1338
55.1312
55.1286
55.126
55.1234
55.1209
55.1183
55.1157
55.1131
55.1105
55.1079
55.1053
55.1027
55.1001
55.0975
55.0949
55.0924
55.0898
55.0872
55.0846
55.082
55.0794
55.0768
55.0742
55.0716
55.0691
55.0665
55.0639
55.0613
55.0587
55.0561
55.0536
55.051
55.0484
55.0458
55.0432
55.0406
55.0381
55.0355
55.0329
55.0303
55.0277
55.0252
55.0226
55.02
55.0174
55.0148
55.0123
55.0097
55.0071
55.0045
55.002
54.9994
54.9968
54.9942
54.9917
54.9891
54.9865
54.9839
54.9814
54.9788
54.9762
54.9736
54.9711
54.9685
54.9659
54.9634
54.9608
54.9582
54.9556
54.9531
54.9505
54.9479
54.9454
54.9428
54.9402
54.9377
54.9351
54.9325
54.93
54.9274
54.9248
54.9223
54.9197
54.9171
54.9146
54.912
54.9095
54.9069
54.9043
54.9018
54.8992
54.8966
54.8941
54.8915
54.889
54.8864
54.8838
54.8813
54.8787
54.8762
54.8736
54.871
54.8685
54.8659
54.8634
54.8608
54.8583
54.8557
54.8532
54.8506
54.848
54.8455
54.8429
54.8404
54.8378
54.8353
54.8327
54.8302
54.8276
54.8251
54.8225
54.82
54.8174
54.8149
54.8123
54.8098
54.8072
54.8047
54.8021
54.7996
54.797
54.7945
54.7919
54.7894
54.7869
54.7843
54.7818
54.7792
54.7767
54.7741
54.7716
54.769
54.7665
54.764
54.7614
54.7589
54.7563
54.7538
54.7513
54.7487
54.7462
54.7436
54.7411
54.7386
54.736
54.7335
54.7309
54.7284
54.7259
54.7233
54.7208
54.7183
54.7157
54.7132
54.7107
54.7081
54.7056
54.7031
54.7005
54.698
54.6955
54.6929
54.6904
54.6879
54.6853
54.6828
54.6803
54.6777
54.6752
54.6727
54.6702
54.6676
54.6651
54.6626
54.66
54.6575
54.655
54.6525
54.6499
54.6474
54.6449
54.6424
54.6398
54.6373
54.6348
54.6323
54.6297
54.6272
54.6247
54.6222
54.6197
54.6171
54.6146
54.6121
54.6096
54.6071
54.6045
54.602
54.5995
54.597
54.5945
54.592
54.5894
54.5869
54.5844
54.5819
54.5794
54.5769
54.5743
54.5718
54.5693
54.5668
54.5643
54.5618
54.5593
54.5567
54.5542
54.5517
54.5492
54.5467
54.5442
54.5417
54.5392
54.5367
54.5342
54.5316
54.5291
54.5266
54.5241
54.5216
54.5191
54.5166
54.5141
54.5116
54.5091
54.5066
54.5041
54.5016
54.4991
54.4966
54.4941
54.4916
54.4891
54.4866
54.4841
54.4815
54.479
54.4765
54.474
54.4715
54.469
54.4665
54.4641
54.4616
54.4591
54.4566
54.4541
54.4516
54.4491
54.4466
54.4441
54.4416
54.4391
54.4366
54.4341
54.4316
54.4291
54.4266
54.4241
54.4216
54.4191
54.4166
54.4142
54.4117
54.4092
54.4067
54.4042
54.4017
54.3992
54.3967
54.3942
54.3917
54.3893
54.3868
54.3843
54.3818
54.3793
54.3768
54.3743
54.3719
54.3694
54.3669
54.3644
54.3619
54.3594
54.3569
54.3545
54.352
54.3495
54.347
54.3445
54.3421
54.3396
54.3371
54.3346
54.3321
54.3297
54.3272
54.3247
54.3222
54.3197
54.3173
54.3148
54.3123
54.3098
54.3074
54.3049
54.3024
54.2999
54.2975
54.295
54.2925
54.29
54.2876
54.2851
54.2826
54.2801
54.2777
54.2752
54.2727
54.2703
54.2678
54.2653
54.2629
54.2604
54.2579
54.2554
54.253
54.2505
54.248
54.2456
54.2431
54.2406
54.2382
54.2357
54.2332
54.2308
54.2283
54.2259
54.2234
54.2209
54.2185
54.216
54.2135
54.2111
54.2086
54.2062
54.2037
54.2012
54.1988
54.1963
54.1939
54.1914
54.1889
54.1865
54.184
54.1816
54.1791
54.1767
54.1742
54.1717
54.1693
54.1668
54.1644
54.1619
54.1595
54.157
54.1546
54.1521
54.1497
54.1472
54.1447
54.1423
54.1398
54.1374
54.1349
54.1325
54.13
54.1276
54.1251
54.1227
54.1202
54.1178
54.1153
54.1129
54.1105
54.108
54.1056
54.1031
54.1007
54.0982
54.0958
54.0933
54.0909
54.0884
54.086
54.0836
54.0811
54.0787
54.0762
54.0738
54.0714
54.0689
54.0665
54.064
54.0616
54.0591
54.0567
54.0543
54.0518
54.0494
54.047
54.0445
54.0421
54.0396
54.0372
54.0348
54.0323
54.0299
54.0275
54.025
54.0226
54.0202
54.0177
54.0153
54.0129
54.0104
54.008
54.0056
54.0031
54.0007
53.9983
53.9958
53.9934
53.991
53.9886
53.9861
53.9837
53.9813
53.9788
53.9764
53.974
53.9716
53.9691
53.9667
53.9643
53.9619
53.9594
53.957
53.9546
53.9522
53.9497
53.9473
53.9449
53.9425
53.9401
53.9376
53.9352
53.9328
53.9304
53.9279
53.9255
53.9231
53.9207
53.9183
53.9159
53.9134
53.911
53.9086
53.9062
53.9038
53.9013
53.8989
53.8965
53.8941
53.8917
53.8893
53.8869
53.8844
53.882
53.8796
53.8772
53.8748
53.8724
53.87
53.8676
53.8651
53.8627
53.8603
53.8579
53.8555
53.8531
53.8507
53.8483
53.8459
53.8435
53.8411
53.8387
53.8362
53.8338
53.8314
53.829
53.8266
53.8242
53.8218
53.8194
53.817
53.8146
53.8122
53.8098
53.8074
53.805
53.8026
53.8002
53.7978
53.7954
53.793
53.7906
53.7882
53.7858
53.7834
53.781
53.7786
53.7762
53.7738
53.7714
53.769
53.7666
53.7642
53.7618
53.7594
53.757
53.7546
53.7522
53.7498
53.7475
53.7451
53.7427
53.7403
53.7379
53.7355
53.7331
53.7307
53.7283
53.7259
53.7235
53.7211
53.7188
53.7164
53.714
53.7116
53.7092
53.7068
53.7044
53.702
53.6997
53.6973
53.6949
53.6925
53.6901
53.6877
53.6853
53.683
53.6806
53.6782
53.6758
53.6734
53.671
53.6687
53.6663
53.6639
53.6615
53.6591
53.6568
53.6544
53.652
53.6496
53.6472
53.6449
53.6425
53.6401
53.6377
53.6354
53.633
53.6306
53.6282
53.6259
53.6235
53.6211
53.6187
53.6164
53.614
53.6116
53.6092
53.6069
53.6045
53.6021
53.5998
53.5974
53.595
53.5926
53.5903
53.5879
53.5855
53.5832
53.5808
53.5784
53.5761
53.5737
53.5713
53.569
53.5666
53.5642
53.5619
53.5595
53.5571
53.5548
53.5524
53.55
53.5477
53.5453
53.5429
53.5406
53.5382
53.5359
53.5335
53.5311
53.5288
53.5264
53.5241
53.5217
53.5193
53.517
53.5146
53.5123
53.5099
53.5075
53.5052
53.5028
53.5005
53.4981
53.4958
53.4934
53.491
53.4887
53.4863
53.484
53.4816
53.4793
53.4769
53.4746
53.4722
53.4699
53.4675
53.4652
53.4628
53.4605
53.4581
53.4558
53.4534
53.4511
53.4487
53.4464
53.444
53.4417
53.4393
53.437
53.4346
53.4323
53.4299
53.4276
53.4252
53.4229
53.4206
53.4182
53.4159
53.4135
53.4112
53.4088
53.4065
53.4042
53.4018
53.3995
53.3971
53.3948
53.3925
53.3901
53.3878
53.3854
53.3831
53.3808
53.3784
53.3761
53.3737
53.3714
53.3691
53.3667
53.3644
53.3621
53.3597
53.3574
53.3551
53.3527
53.3504
53.3481
53.3457
53.3434
53.3411
53.3387
53.3364
53.3341
53.3317
53.3294
53.3271
53.3247
53.3224
53.3201
53.3177
53.3154
53.3131
53.3108
53.3084
53.3061
53.3038
53.3015
53.2991
53.2968
53.2945
53.2922
53.2898
53.2875
53.2852
53.2829
53.2805
53.2782
53.2759
53.2736
53.2712
53.2689
53.2666
53.2643
53.262
53.2596
53.2573
53.255
53.2527
53.2504
53.248
53.2457
53.2434
53.2411
53.2388
53.2364
53.2341
53.2318
53.2295
53.2272
53.2249
53.2226
53.2202
53.2179
53.2156
53.2133
53.211
53.2087
53.2064
53.2041
53.2017
53.1994
53.1971
53.1948
53.1925
53.1902
53.1879
53.1856
53.1833
53.181
53.1786
53.1763
53.174
53.1717
53.1694
53.1671
53.1648
53.1625
53.1602
53.1579
53.1556
53.1533
53.151
53.1487
53.1464
53.1441
53.1418
53.1395
53.1372
53.1349
53.1326
53.1303
53.128
53.1257
53.1234
53.1211
53.1188
53.1165
53.1142
53.1119
53.1096
53.1073
53.105
53.1027
53.1004
53.0981
53.0958
53.0935
53.0912
53.0889
53.0866
53.0843
53.082
53.0797
53.0774
53.0751
53.0729
53.0706
53.0683
53.066
53.0637
53.0614
53.0591
53.0568
53.0545
53.0522
53.0499
53.0477
53.0454
53.0431
53.0408
53.0385
53.0362
53.0339
53.0317
53.0294
53.0271
53.0248
53.0225
53.0202
53.0179
53.0157
53.0134
53.0111
53.0088
53.0065
53.0043
53.002
52.9997
52.9974
52.9951
52.9929
52.9906
52.9883
52.986
52.9837
52.9815
52.9792
52.9769
52.9746
52.9723
52.9701
52.9678
52.9655
52.9632
52.961
52.9587
52.9564
52.9541
52.9519
52.9496
52.9473
52.9451
52.9428
52.9405
52.9382
52.936
52.9337
52.9314
52.9292
52.9269
52.9246
52.9223
52.9201
52.9178
52.9155
52.9133
52.911
52.9087
52.9065
52.9042
52.9019
52.8997
52.8974
52.8951
52.8929
52.8906
52.8884
52.8861
52.8838
52.8816
52.8793
52.877
52.8748
52.8725
52.8703
52.868
52.8657
52.8635
52.8612
52.859
52.8567
52.8544
52.8522
52.8499
52.8477
52.8454
52.8432
52.8409
52.8386
52.8364
52.8341
52.8319
52.8296
52.8274
52.8251
52.8229
52.8206
52.8183
52.8161
52.8138
52.8116
52.8093
52.8071
52.8048
52.8026
52.8003
52.7981
52.7958
52.7936
52.7913
52.7891
52.7868
52.7846
52.7823
52.7801
52.7779
52.7756
52.7734
52.7711
52.7689
52.7666
52.7644
52.7621
52.7599
52.7576
52.7554
52.7532
52.7509
52.7487
52.7464
52.7442
52.7419
52.7397
52.7375
52.7352
52.733
52.7307
52.7285
52.7263
52.724
52.7218
52.7196
52.7173
52.7151
52.7128
52.7106
52.7084
52.7061
52.7039
52.7017
52.6994
52.6972
52.695
52.6927
52.6905
52.6883
52.686
52.6838
52.6816
52.6793
52.6771
52.6749
52.6726
52.6704
52.6682
52.6659
52.6637
52.6615
52.6593
52.657
52.6548
52.6526
52.6504
52.6481
52.6459
52.6437
52.6414
52.6392
52.637
52.6348
52.6325
52.6303
52.6281
52.6259
52.6237
52.6214
52.6192
52.617
52.6148
52.6125
52.6103
52.6081
52.6059
52.6037
52.6014
52.5992
52.597
52.5948
52.5926
52.5903
52.5881
52.5859
52.5837
52.5815
52.5793
52.577
52.5748
52.5726
52.5704
52.5682
52.566
52.5638
52.5615
52.5593
52.5571
52.5549
52.5527
52.5505
52.5483
52.5461
52.5438
52.5416
52.5394
52.5372
52.535
52.5328
52.5306
52.5284
52.5262
52.524
52.5218
52.5196
52.5173
52.5151
52.5129
52.5107
52.5085
52.5063
52.5041
52.5019
52.4997
52.4975
52.4953
52.4931
52.4909
52.4887
52.4865
52.4843
52.4821
52.4799
52.4777
52.4755
52.4733
52.4711
52.4689
52.4667
52.4645
52.4623
52.4601
52.4579
52.4557
52.4535
52.4513
52.4491
52.4469
52.4447
52.4425
52.4403
52.4381
52.4359
52.4337
52.4316
52.4294
52.4272
52.425
52.4228
52.4206
52.4184
52.4162
52.414
52.4118
52.4096
52.4075
52.4053
52.4031
52.4009
52.3987
52.3965
52.3943
52.3921
52.3899
52.3878
52.3856
52.3834
52.3812
52.379
52.3768
52.3747
52.3725
52.3703
52.3681
52.3659
52.3637
52.3616
52.3594
52.3572
52.355
52.3528
52.3506
52.3485
52.3463
52.3441
52.3419
52.3397
52.3376
52.3354
52.3332
52.331
52.3289
52.3267
52.3245
52.3223
52.3202
52.318
52.3158
52.3136
52.3115
52.3093
52.3071
52.3049
52.3028
52.3006
52.2984
52.2962
52.2941
52.2919
52.2897
52.2876
52.2854
52.2832
52.281
52.2789
52.2767
52.2745
52.2724
52.2702
52.268
52.2659
52.2637
52.2615
52.2594
52.2572
52.255
52.2529
52.2507
52.2485
52.2464
52.2442
52.2421
52.2399
52.2377
52.2356
52.2334
52.2312
52.2291
52.2269
52.2248
52.2226
52.2204
52.2183
52.2161
52.214
52.2118
52.2096
52.2075
52.2053
52.2032
52.201
52.1988
52.1967
52.1945
52.1924
52.1902
52.1881
52.1859
52.1838
52.1816
52.1795
52.1773
52.1751
52.173
52.1708
52.1687
52.1665
52.1644
52.1622
52.1601
52.1579
52.1558
52.1536
52.1515
52.1493
52.1472
52.145
52.1429
52.1407
52.1386
52.1365
52.1343
52.1322
52.13
52.1279
52.1257
52.1236
52.1214
52.1193
52.1171
52.115
52.1129
52.1107
52.1086
52.1064
52.1043
52.1021
52.1
52.0979
52.0957
52.0936
52.0914
52.0893
52.0872
52.085
52.0829
52.0807
52.0786
52.0765
52.0743
52.0722
52.0701
52.0679
52.0658
52.0637
52.0615
52.0594
52.0573
52.0551
52.053
52.0508
52.0487
52.0466
52.0445
52.0423
52.0402
52.0381
52.0359
52.0338
52.0317
52.0295
52.0274
52.0253
52.0231
52.021
52.0189
52.0168
52.0146
52.0125
52.0104
52.0083
52.0061
52.004
52.0019
51.9997
51.9976
51.9955
51.9934
51.9913
51.9891
51.987
51.9849
51.9828
51.9806
51.9785
51.9764
51.9743
51.9721
51.97
51.9679
51.9658
51.9637
51.9616
51.9594
51.9573
51.9552
51.9531