# vtk DataFile Version 2.0
vtk output
ASCII
DATASET STRUCTURED_GRID
DIMENSIONS 50 10 30
POINTS 15000 float
0 0 0
1 0 0
2 0 0
3 0 0
4 0 0
5 0 0
6 0 0
7 0 0
8 0 0
9 0 0
10 0 0
11 0 0
12 0 0
13 0 0
14 0 0
15 0 0
16 0 0
17 0 0
18 0 0
19 0 0
20 0 0
21 0 0
22 0 0
23 0 0
24 0 0
25 0 0
26 0 0
27 0 0
28 0 0
29 0 0
30 0 0
31 0 0
32 0 0
33 0 0
34 0 0
35 0 0
36 0 0
37 0 0
38 0 0
39 0 0
40 0 0
41 0 0
42 0 0
43 0 0
44 0 0
45 0 0
46 0 0
47 0 0
48 0 0
49 0 0
0 1 0
1 1 0
2 1 0
3 1 0
4 1 0
5 1 0
6 1 0
7 1 0
8 1 0
9 1 0
10 1 0
11 1 0
12 1 0
13 1 0
14 1 0
15 1 0
16 1 0
17 1 0
18 1 0
19 1 0
20 1 0
21 1 0
22 1 0
23 1 0
24 1 0
25 1 0
26 1 0
27 1 0
28 1 0
29 1 0
30 1 0
31 1 0
32 1 0
33 1 0
34 1 0
35 1 0
36 1 0
37 1 0
38 1 0
39 1 0
40 1 0
41 1 0
42 1 0
43 1 0
44 1 0
45 1 0
46 1 0
47 1 0
48 1 0
49 1 0
0 2 0
1 2 0
2 2 0
3 2 0
4 2 0
5 2 0
6 2 0
7 2 0
8 2 0
9 2 0
10 2 0
11 2 0
12 2 0
13 2 0
14 2 0
15 2 0
16 2 0
17 2 0
18 2 0
19 2 0
20 2 0
21 2 0
22 2 0
23 2 0
24 2 0
25 2 0
26 2 0
27 2 0
28 2 0
29 2 0
30 2 0
31 2 0
32 2 0
33 2 0
34 2 0
35 2 0
36 2 0
37 2 0
38 2 0
39 2 0
40 2 0
41 2 0
42 2 0
43 2 0
44 2 0
45 2 0
46 2 0
47 2 0
48 2 0
49 2 0
0 3 0
1 3 0
2 3 0
3 3 0
4 3 0
5 3 0
6 3 0
7 3 0
8 3 0
9 3 0
10 3 0
11 3 0
12 3 0
13 3 0
14 3 0
15 3 0
16 3 0
17 3 0
18 3 0
19 3 0
20 3 0
21 3 0
22 3 0
23 3 0
24 3 0
25 3 0
26 3 0
27 3 0
28 3 0
29 3 0
30 3 0
31 3 0
32 3 0
33 3 0
34 3 0
35 3 0
36 3 0
37 3 0
38 3 0
39 3 0
40 3 0
41 3 0
42 3 0
43 3 0
44 3 0
45 3 0
46 3 0
47 3 0
48 3 0
49 3 0
0 4 0
1 4 0
2 4 0
3 4 0
4 4 0
5 4 0
6 4 0
7 4 0
8 4 0
9 4 0
10 4 0
11 4 0
12 4 0
13 4 0
14 4 0
15 4 0
16 4 0
17 4 0
18 4 0
19 4 0
20 4 0
21 4 0
22 4 0
23 4 0
24 4 0
25 4 0
26 4 0
27 4 0
28 4 0
29 4 0
30 4 0
31 4 0
32 4 0
33 4 0
34 4 0
35 4 0
36 4 0
37 4 0
38 4 0
39 4 0
40 4 0
41 4 0
42 4 0
43 4 0
44 4 0
45 4 0
46 4 0
47 4 0
48 4 0
49 4 0
0 5 0
1 5 0
2 5 0
3 5 0
4 5 0
5 5 0
6 5 0
7 5 0
8 5 0
9 5 0
10 5 0
11 5 0
12 5 0
13 5 0
14 5 0
15 5 0
16 5 0
17 5 0
18 5 0
19 5 0
20 5 0
21 5 0
22 5 0
23 5 0
24 5 0
25 5 0
26 5 0
27 5 0
28 5 0
29 5 0
30 5 0
31 5 0
32 5 0
33 5 0
34 5 0
35 5 0
36 5 0
37 5 0
38 5 0
39 5 0
40 5 0
41 5 0
42 5 0
43 5 0
44 5 0
45 5 0
46 5 0
47 5 0
48 5 0
49 5 0
0 6 0
1 6 0
2 6 0
3 6 0
4 6 0
5 6 0
6 6 0
7 6 0
8 6 0
9 6 0
10 6 0
11 6 0
12 6 0
13 6 0
14 6 0
15 6 0
16 6 0
17 6 0
18 6 0
19 6 0
20 6 0
21 6 0
22 6 0
23 6 0
24 6 0
25 6 0
26 6 0
27 6 0
28 6 0
29 6 0
30 6 0
31 6 0
32 6 0
33 6 0
34 6 0
35 6 0
36 6 0
37 6 0
38 6 0
39 6 0
40 6 0
41 6 0
42 6 0
43 6 0
44 6 0
45 6 0
46 6 0
47 6 0
48 6 0
49 6 0
0 7 0
1 7 0
2 7 0
3 7 0
4 7 0
5 7 0
6 7 0
7 7 0
8 7 0
9 7 0
10 7 0
11 7 0
12 7 0
13 7 0
14 7 0
15 7 0
16 7 0
17 7 0
18 7 0
19 7 0
20 7 0
21 7 0
22 7 0
23 7 0
24 7 0
25 7 0
26 7 0
27 7 0
28 7 0
29 7 0
30 7 0
31 7 0
32 7 0
33 7 0
34 7 0
35 7 0
36 7 0
37 7 0
38 7 0
39 7 0
40 7 0
41 7 0
42 7 0
43 7 0
44 7 0
45 7 0
46 7 0
47 7 0
48 7 0
49 7 0
0 8 0
1 8 0
2 8 0
3 8 0
4 8 0
5 8 0
6 8 0
7 8 0
8 8 0
9 8 0
10 8 0
11 8 0
12 8 0
13 8 0
14 8 0
15 8 0
16 8 0
17 8 0
18 8 0
19 8 0
20 8 0
21 8 0
22 8 0
23 8 0
24 8 0
25 8 0
26 8 0
27 8 0
28 8 0
29 8 0
30 8 0
31 8 0
32 8 0
33 8 0
34 8 0
35 8 0
36 8 0
37 8 0
38 8 0
39 8 0
40 8 0
41 8 0
42 8 0
43 8 0
44 8 0
45 8 0
46 8 0
47 8 0
48 8 0
49 8 0
0 9 0
1 9 0
2 9 0
3 9 0
4 9 0
5 9 0
6 9 0
7 9 0
8 9 0
9 9 0
10 9 0
11 9 0
12 9 0
13 9 0
14 9 0
15 9 0
16 9 0
17 9 0
18 9 0
19 9 0
20 9 0
21 9 0
22 9 0
23 9 0
24 9 0
25 9 0
26 9 0
27 9 0
28 9 0
29 9 0
30 9 0
31 9 0
32 9 0
33 9 0
34 9 0
35 9 0
36 9 0
37 9 0
38 9 0
39 9 0
40 9 0
41 9 0
42 9 0
43 9 0
44 9 0
45 9 0
46 9 0
47 9 0
48 9 0
49 9 0
0 0 1
1 0 1
2 0 1
3 0 1
4 0 1
5 0 1
6 0 1
7 0 1
8 0 1
9 0 1
10 0 1
11 0 1
12 0 1
13 0 1
14 0 1
15 0 1
16 0 1
17 0 1
18 0 1
19 0 1
20 0 1
21 0 1
22 0 1
23 0 1
24 0 1
25 0 1
26 0 1
27 0 1
28 0 1
29 0 1
30 0 1
31 0 1
32 0 1
33 0 1
34 0 1
35 0 1
36 0 1
37 0 1
38 0 1
39 0 1
40 0 1
41 0 1
42 0 1
43 0 1
44 0 1
45 0 1
46 0 1
47 0 1
48 0 1
49 0 1
0 1 1
1 1 1
2 1 1
3 1 1
4 1 1
5 1 1
6 1 1
7 1 1
8 1 1
9 1 1
10 1 1
11 1 1
12 1 1
13 1 1
14 1 1
15 1 1
16 1 1
17 1 1
18 1 1
19 1 1
20 1 1
21 1 1
22 1 1
23 1 1
24 1 1
25 1 1
26 1 1
27 1 1
28 1 1
29 1 1
30 1 1
31 1 1
32 1 1
33 1 1
34 1 1
35 1 1
36 1 1
37 1 1
38 1 1
39 1 1
40 1 1
41 1 1
42 1 1
43 1 1
44 1 1
45 1 1
46 1 1
47 1 1
48 1 1
49 1 1
0 2 1
1 2 1
2 2 1
3 2 1
4 2 1
5 2 1
6 2 1
7 2 1
8 2 1
9 2 1
10 2 1
11 2 1
12 2 1
13 2 1
14 2 1
15 2 1
16 2 1
17 2 1
18 2 1
19 2 1
20 2 1
21 2 1
22 2 1
23 2 1
24 2 1
25 2 1
26 2 1
27 2 1
28 2 1
29 2 1
30 2 1
31 2 1
32 2 1
33 2 1
34 2 1
35 2 1
36 2 1
37 2 1
38 2 1
39 2 1
40 2 1
41 2 1
42 2 1
43 2 1
44 2 1
45 2 1
46 2 1
47 2 1
48 2 1
49 2 1
0 3 1
1 3 1
2 3 1
3 3 1
4 3 1
5 3 1
6 3 1
7 3 1
8 3 1
9 3 1
10 3 1
11 3 1
12 3 1
13 3 1
14 3 1
15 3 1
16 3 1
17 3 1
18 3 1
19 3 1
20 3 1
21 3 1
22 3 1
23 3 1
24 3 1
25 3 1
26 3 1
27 3 1
28 3 1
29 3 1
30 3 1
31 3 1
32 3 1
33 3 1
34 3 1
35 3 1
36 3 1
37 3 1
38 3 1
39 3 1
40 3 1
41 3 1
42 3 1
43 3 1
44 3 1
45 3 1
46 3 1
47 3 1
48 3 1
49 3 1
0 4 1
1 4 1
2 4 1
3 4 1
4 4 1
5 4 1
6 4 1
7 4 1
8 4 1
9 4 1
10 4 1
11 4 1
12 4 1
13 4 1
14 4 1
15 4 1
16 4 1
17 4 1
18 4 1
19 4 1
20 4 1
21 4 1
22 4 1
23 4 1
24 4 1
25 4 1
26 4 1
27 4 1
28 4 1
29 4 1
30 4 1
31 4 1
32 4 1
33 4 1
34 4 1
35 4 1
36 4 1
37 4 1
38 4 1
39 4 1
40 4 1
41 4 1
42 4 1
43 4 1
44 4 1
45 4 1
46 4 1
47 4 1
48 4 1
49 4 1
0 5 1
1 5 1
2 5 1
3 5 1
4 5 1
5 5 1
6 5 1
7 5 1
8 5 1
9 5 1
10 5 1
11 5 1
12 5 1
13 5 1
14 5 1
15 5 1
16 5 1
17 5 1
18 5 1
19 5 1
20 5 1
21 5 1
22 5 1
23 5 1
24 5 1
25 5 1
26 5 1
27 5 1
28 5 1
29 5 1
30 5 1
31 5 1
32 5 1
33 5 1
34 5 1
35 5 1
36 5 1
37 5 1
38 5 1
39 5 1
40 5 1
41 5 1
42 5 1
43 5 1
44 5 1
45 5 1
46 5 1
47 5 1
48 5 1
49 5 1
0 6 1
1 6 1
2 6 1
3 6 1
4 6 1
5 6 1
6 6 1
7 6 1
8 6 1
9 6 1
10 6 1
11 6 1
12 6 1
13 6 1
14 6 1
15 6 1
16 6 1
17 6 1
18 6 1
19 6 1
20 6 1
21 6 1
22 6 1
23 6 1
24 6 1
25 6 1
26 6 1
27 6 1
28 6 1
29 6 1
30 6 1
31 6 1
32 6 1
33 6 1
34 6 1
35 6 1
36 6 1
37 6 1
38 6 1
39 6 1
40 6 1
41 6 1
42 6 1
43 6 1
44 6 1
45 6 1
46 6 1
47 6 1
48 6 1
49 6 1
0 7 1
1 7 1
2 7 1
3 7 1
4 7 1
5 7 1
6 7 1
7 7 1
8 7 1
9 7 1
10 7 1
11 7 1
12 7 1
13 7 1
14 7 1
15 7 1
16 7 1
17 7 1
18 7 1
19 7 1
20 7 1
21 7 1
22 7 1
23 7 1
24 7 1
25 7 1
26 7 1
27 7 1
28 7 1
29 7 1
30 7 1
31 7 1
32 7 1
33 7 1
34 7 1
35 7 1
36 7 1
37 7 1
38 7 1
39 7 1
40 7 1
41 7 1
42 7 1
43 7 1
44 7 1
45 7 1
46 7 1
47 7 1
48 7 1
49 7 1
0 8 1
1 8 1
2 8 1
3 8 1
4 8 1
5 8 1
6 8 1
7 8 1
8 8 1
9 8 1
10 8 1
11 8 1
12 8 1
13 8 1
14 8 1
15 8 1
16 8 1
17 8 1
18 8 1
19 8 1
20 8 1
21 8 1
22 8 1
23 8 1
24 8 1
25 8 1
26 8 1
27 8 1
28 8 1
29 8 1
30 8 1
31 8 1
32 8 1
33 8 1
34 8 1
35 8 1
36 8 1
37 8 1
38 8 1
39 8 1
40 8 1
41 8 1
42 8 1
43 8 1
44 8 1
45 8 1
46 8 1
47 8 1
48 8 1
49 8 1
0 9 1
1 9 1
2 9 1
3 9 1
4 9 1
5 9 1
6 9 1
7 9 1
8 9 1
9 9 1
10 9 1
11 9 1
12 9 1
13 9 1
14 9 1
15 9 1
16 9 1
17 9 1
18 9 1
19 9 1
20 9 1
21 9 1
22 9 1
23 9 1
24 9 1
25 9 1
26 9 1
27 9 1
28 9 1
29 9 1
30 9 1
31 9 1
32 9 1
33 9 1
34 9 1
35 9 1
36 9 1
37 9 1
38 9 1
39 9 1
40 9 1
41 9 1
42 9 1
43 9 1
44 9 1
45 9 1
46 9 1
47 9 1
48 9 1
49 9 1
0 0 2
1 0 2
2 0 2
3 0 2
4 0 2
5 0 2
6 0 2
7 0 2
8 0 2
9 0 2
10 0 2
11 0 2
12 0 2
13 0 2
14 0 2
15 0 2
16 0 2
17 0 2
18 0 2
19 0 2
20 0 2
21 0 2
22 0 2
23 0 2
24 0 2
25 0 2
26 0 2
27 0 2
28 0 2
29 0 2
30 0 2
31 0 2
32 0 2
33 0 2
34 0 2
35 0 2
36 0 2
37 0 2
38 0 2
39 0 2
40 0 2
41 0 2
42 0 2
43 0 2
44 0 2
45 0 2
46 0 2
47 0 2
48 0 2
49 0 2
0 1 2
1 1 2
2 1 2
3 1 2
4 1 2
5 1 2
6 1 2
7 1 2
8 1 2
9 1 2
10 1 2
11 1 2
12 1 2
13 1 2
14 1 2
15 1 2
16 1 2
17 1 2
18 1 2
19 1 2
20 1 2
21 1 2
22 1 2
23 1 2
24 1 2
25 1 2
26 1 2
27 1 2
28 1 2
29 1 2
30 1 2
31 1 2
32 1 2
33 1 2
34 1 2
35 1 2
36 1 2
37 1 2
38 1 2
39 1 2
40 1 2
41 1 2
42 1 2
43 1 2
44 1 2
45 1 2
46 1 2
47 1 2
48 1 2
49 1 2
0 2 2
1 2 2
2 2 2
3 2 2
4 2 2
5 2 2
6 2 2
7 2 2
8 2 2
9 2 2
10 2 2
11 2 2
12 2 2
13 2 2
14 2 2
15 2 2
16 2 2
17 2 2
18 2 2
19 2 2
20 2 2
21 2 2
22 2 2
23 2 2
24 2 2
25 2 2
26 2 2
27 2 2
28 2 2
29 2 2
30 2 2
31 2 2
32 2 2
33 2 2
34 2 2
35 2 2
36 2 2
37 2 2
38 2 2
39 2 2
40 2 2
41 2 2
42 2 2
43 2 2
44 2 2
45 2 2
46 2 2
47 2 2
48 2 2
49 2 2
0 3 2
1 3 2
2 3 2
3 3 2
4 3 2
5 3 2
6 3 2
7 3 2
8 3 2
9 3 2
10 3 2
11 3 2
12 3 2
13 3 2
14 3 2
15 3 2
16 3 2
17 3 2
18 3 2
19 3 2
20 3 2
21 3 2
22 3 2
23 3 2
24 3 2
25 3 2
26 3 2
27 3 2
28 3 2
29 3 2
30 3 2
31 3 2
32 3 2
33 3 2
34 3 2
35 3 2
36 3 2
37 3 2
38 3 2
39 3 2
40 3 2
41 3 2
42 3 2
43 3 2
44 3 2
45 3 2
46 3 2
47 3 2
48 3 2
49 3 2
0 4 2
1 4 2
2 4 2
3 4 2
4 4 2
5 4 2
6 4 2
7 4 2
8 4 2
9 4 2
10 4 2
11 4 2
12 4 2
13 4 2
14 4 2
15 4 2
16 4 2
17 4 2
18 4 2
19 4 2
20 4 2
21 4 2
22 4 2
23 4 2
24 4 2
25 4 2
26 4 2
27 4 2
28 4 2
29 4 2
30 4 2
31 4 2
32 4 2
33 4 2
34 4 2
35 4 2
36 4 2
37 4 2
38 4 2
39 4 2
40 4 2
41 4 2
42 4 2
43 4 2
44 4 2
45 4 2
46 4 2
47 4 2
48 4 2
49 4 2
0 5 2
1 5 2
2 5 2
3 5 2
4 5 2
5 5 2
6 5 2
7 5 2
8 5 2
9 5 2
10 5 2
11 5 2
12 5 2
13 5 2
14 5 2
15 5 2
16 5 2
17 5 2
18 5 2
19 5 2
20 5 2
21 5 2
22 5 2
23 5 2
24 5 2
25 5 2
26 5 2
27 5 2
28 5 2
29 5 2
30 5 2
31 5 2
32 5 2
33 5 2
34 5 2
35 5 2
36 5 2
37 5 2
38 5 2
39 5 2
40 5 2
41 5 2
42 5 2
43 5 2
44 5 2
45 5 2
46 5 2
47 5 2
48 5 2
49 5 2
0 6 2
1 6 2
2 6 2
3 6 2
4 6 2
5 6 2
6 6 2
7 6 2
8 6 2
9 6 2
10 6 2
11 6 2
12 6 2
13 6 2
14 6 2
15 6 2
16 6 2
17 6 2
18 6 2
19 6 2
20 6 2
21 6 2
22 6 2
23 6 2
24 6 2
25 6 2
26 6 2
27 6 2
28 6 2
29 6 2
30 6 2
31 6 2
32 6 2
33 6 2
34 6 2
35 6 2
36 6 2
37 6 2
38 6 2
39 6 2
40 6 2
41 6 2
42 6 2
43 6 2
44 6 2
45 6 2
46 6 2
47 6 2
48 6 2
49 6 2
0 7 2
1 7 2
2 7 2
3 7 2
4 7 2
5 7 2
6 7 2
7 7 2
8 7 2
9 7 2
10 7 2
11 7 2
12 7 2
13 7 2
14 7 2
15 7 2
16 7 2
17 7 2
18 7 2
19 7 2
20 7 2
21 7 2
22 7 2
23 7 2
24 7 2
25 7 2
26 7 2
27 7 2
28 7 2
29 7 2
30 7 2
31 7 2
32 7 2
33 7 2
34 7 2
35 7 2
36 7 2
37 7 2
38 7 2
39 7 2
40 7 2
41 7 2
42 7 2
43 7 2
44 7 2
45 7 2
46 7 2
47 7 2
48 7 2
49 7 2
0 8 2
1 8 2
2 8 2
3 8 2
4 8 2
5 8 2
6 8 2
7 8 2
8 8 2
9 8 2
10 8 2
11 8 2
12 8 2
13 8 2
14 8 2
15 8 2
16 8 2
17 8 2
18 8 2
19 8 2
20 8 2
21 8 2
22 8 2
23 8 2
24 8 2
25 8 2
26 8 2
27 8 2
28 8 2
29 8 2
30 8 2
31 8 2
32 8 2
33 8 2
34 8 2
35 8 2
36 8 2
37 8 2
38 8 2
39 8 2
40 8 2
41 8 2
42 8 2
43 8 2
44 8 2
45 8 2
46 8 2
47 8 2
48 8 2
49 8 2
0 9 2
1 9 2
2 9 2
3 9 2
4 9 2
[...]
POINT_DATA 15000
SCALARS sol240 float
LOOKUP_TABLE default
58.2694
58.2664
58.2633
58.2603
58.2572
58.2542
58.2511
58.2481
58.245
58.242
58.2389
58.2359
58.2329
58.2298
58.2268
58.2237
58.2207
58.2176
58.2146
58.2116
58.2085
58.2055
58.2024
58.1994
58.1964
58.1933
58.1903
58.1872
58.1842
58.1812
58.1781
58.1751
58.1721
58.169
58.166
58.1629
58.1599
58.1569
58.1538
58.1508
58.1478
58.1447
58.1417
58.1387
58.1357
58.1326
58.1296
58.1266
58.1235
58.1205
58.1175
58.1144
58.1114
58.1084
58.1054
58.1023
58.0993
58.0963
58.0933
58.0902
58.0872
58.0842
58.0812
58.0781
58.0751
58.0721
58.0691
58.066
58.063
58.06
58.057
58.054
58.0509
58.0479
58.0449
58.0419
58.0389
58.0358
58.0328
58.0298
58.0268
58.0238
58.0208
58.0177
58.0147
58.0117
58.0087
58.0057
58.0027
57.9997
57.9966
57.9936
57.9906
57.9876
57.9846
57.9816
57.9786
57.9756
57.9726
57.9695
57.9665
57.9635
57.9605
57.9575
57.9545
57.9515
57.9485
57.9455
57.9425
57.9395
57.9365
57.9335
57.9305
57.9275
57.9245
57.9215
57.9185
57.9154
57.9124
57.9094
57.9064
57.9034
57.9004
57.8974
57.8944
57.8914
57.8884
57.8855
57.8825
57.8795
57.8765
57.8735
57.8705
57.8675
57.8645
57.8615
57.8585
57.8555
57.8525
57.8495
57.8465
57.8435
57.8405
57.8375
57.8345
57.8316
57.8286
57.8256
57.8226
57.8196
57.8166
57.8136
57.8106
57.8076
57.8047
57.8017
57.7987
57.7957
57.7927
57.7897
57.7867
57.7838
57.7808
57.7778
57.7748
57.7718
57.7688
57.7659
57.7629
57.7599
57.7569
57.7539
57.751
57.748
57.745
57.742
57.739
57.7361
57.7331
57.7301
57.7271
57.7242
57.7212
57.7182
57.7152
57.7123
57.7093
57.7063
57.7033
57.7004
57.6974
57.6944
57.6914
57.6885
57.6855
57.6825
57.6796
57.6766
57.6736
57.6706
57.6677
57.6647
57.6617
57.6588
57.6558
57.6528
57.6499
57.6469
57.6439
57.641
57.638
57.635
57.6321
57.6291
57.6262
57.6232
57.6202
57.6173
57.6143
57.6113
57.6084
57.6054
57.6025
57.5995
57.5965
57.5936
57.5906
57.5877
57.5847
57.5818
57.5788
57.5758
57.5729
57.5699
57.567
57.564
57.5611
57.5581
57.5552
57.5522
57.5493
57.5463
57.5433
57.5404
57.5374
57.5345
57.5315
57.5286
57.5256
57.5227
57.5197
57.5168
57.5139
57.5109
57.508
57.505
57.5021
57.4991
57.4962
57.4932
57.4903
57.4873
57.4844
57.4814
57.4785
57.4756
57.4726
57.4697
57.4667
57.4638
57.4609
57.4579
57.455
57.452
57.4491
57.4462
57.4432
57.4403
57.4373
57.4344
57.4315
57.4285
57.4256
57.4227
57.4197
57.4168
57.4139
57.4109
57.408
57.4051
57.4021
57.3992
57.3963
57.3933
57.3904
57.3875
57.3845
57.3816
57.3787
57.3757
57.3728
57.3699
57.367
57.364
57.3611
57.3582
57.3552
57.3523
57.3494
57.3465
57.3435
57.3406
57.3377
57.3348
57.3318
57.3289
57.326
57.3231
57.3202
57.3172
57.3143
57.3114
57.3085
57.3056
57.3026
57.2997
57.2968
57.2939
57.291
57.288
57.2851
57.2822
57.2793
57.2764
57.2735
57.2705
57.2676
57.2647
57.2618
57.2589
57.256
57.2531
57.2501
57.2472
57.2443
57.2414
57.2385
57.2356
57.2327
57.2298
57.2269
57.224
57.221
57.2181
57.2152
57.2123
57.2094
57.2065
57.2036
57.2007
57.1978
57.1949
57.192
57.1891
57.1862
57.1833
57.1804
57.1775
57.1746
57.1717
57.1688
57.1659
57.163
57.1601
57.1572
57.1543
57.1514
57.1485
57.1456
57.1427
57.1398
57.1369
57.134
57.1311
57.1282
57.1253
57.1224
57.1195
57.1166
57.1137
57.1108
57.1079
57.105
57.1021
57.0992
57.0963
57.0935
57.0906
57.0877
57.0848
57.0819
57.079
57.0761
57.0732
57.0703
57.0675
57.0646
57.0617
57.0588
57.0559
57.053
57.0501
57.0473
57.0444
57.0415
57.0386
57.0357
57.0328
57.03
57.0271
57.0242
57.0213
57.0184
57.0155
57.0127
57.0098
57.0069
57.004
57.0011
56.9983
56.9954
56.9925
56.9896
56.9868
56.9839
56.981
56.9781
56.9753
56.9724
56.9695
56.9666
56.9638
56.9609
56.958
56.9551
56.9523
56.9494
56.9465
56.9437
56.9408
56.9379
56.935
56.9322
56.9293
56.9264
56.9236
56.9207
56.9178
56.915
56.9121
56.9092
56.9064
56.9035
56.9006
56.8978
56.8949
56.892
56.8892
56.8863
56.8835
56.8806
56.8777
56.8749
56.872
56.8692
56.8663
56.8634
56.8606
56.8577
56.8549
56.852
56.8491
56.8463
56.8434
56.8406
56.8377
56.8349
56.832
56.8291
56.8263
56.8234
56.8206
56.8177
56.8149
56.812
56.8092
56.8063
56.8035
56.8006
56.7978
56.7949
56.7921
56.7892
56.7864
56.7835
56.7807
56.7778
56.775
56.7721
56.7693
56.7664
56.7636
56.7607
56.7579
56.755
56.7522
56.7494
56.7465
56.7437
56.7408
56.738
56.7351
56.7323
56.7295
56.7266
56.7238
56.7209
56.7181
56.7153
56.7124
56.7096
56.7067
56.7039
56.7011
56.6982
56.6954
56.6926
56.6897
56.6869
56.684
56.6812
56.6784
56.6755
56.6727
56.6699
56.667
56.6642
56.6614
56.6585
56.6557
56.6529
56.6501
56.6472
56.6444
56.6416
56.6387
56.6359
56.6331
56.6302
56.6274
56.6246
56.6218
56.6189
56.6161
56.6133
56.6105
56.6076
56.6048
56.602
56.5992
56.5963
56.5935
56.5907
56.5879
56.5851
56.5822
56.5794
56.5766
56.5738
56.5709
56.5681
56.5653
56.5625
56.5597
56.5569
56.554
56.5512
56.5484
56.5456
56.5428
56.54
56.5371
56.5343
56.5315
56.5287
56.5259
56.5231
56.5203
56.5174
56.5146
56.5118
56.509
56.5062
56.5034
56.5006
56.4978
56.495
56.4922
56.4893
56.4865
56.4837
56.4809
56.4781
56.4753
56.4725
56.4697
56.4669
56.4641
56.4613
56.4585
56.4557
56.4529
56.4501
56.4473
56.4445
56.4417
56.4389
56.4361
56.4333
56.4305
56.4277
56.4249
56.4221
56.4193
56.4165
56.4137
56.4109
56.4081
56.4053
56.4025
56.3997
56.3969
56.3941
56.3913
56.3885
56.3857
56.3829
56.3801
56.3773
56.3745
56.3717
56.3689
56.3661
56.3634
56.3606
56.3578
56.355
56.3522
56.3494
56.3466
56.3438
56.341
56.3383
56.3355
56.3327
56.3299
56.3271
56.3243
56.3215
56.3187
56.316
56.3132
56.3104
56.3076
56.3048
56.302
56.2993
56.2965
56.2937
56.2909
56.2881
56.2854
56.2826
56.2798
56.277
56.2742
56.2715
56.2687
56.2659
56.2631
56.2603
56.2576
56.2548
56.252
56.2492
56.2465
56.2437
56.2409
56.2381
56.2354
56.2326
56.2298
56.2271
56.2243
56.2215
56.2187
56.216
56.2132
56.2104
56.2077
56.2049
56.2021
56.1994
56.1966
56.1938
56.191
56.1883
56.1855
56.1827
56.18
56.1772
56.1745
56.1717
56.1689
56.1662
56.1634
56.1606
56.1579
56.1551
56.1523
56.1496
56.1468
56.1441
56.1413
56.1385
56.1358
56.133
56.1303
56.1275
56.1247
56.122
56.1192
56.1165
56.1137
56.111
56.1082
56.1054
56.1027
56.0999
56.0972
56.0944
56.0917
56.0889
56.0862
56.0834
56.0807
56.0779
56.0752
56.0724
56.0697
56.0669
56.0642
56.0614
56.0587
56.0559
56.0532
56.0504
56.0477
56.0449
56.0422
56.0394
56.0367
56.0339
56.0312
56.0284
56.0257
56.023
56.0202
56.0175
56.0147
56.012
56.0092
56.0065
56.0038
56.001
55.9983
55.9955
55.9928
55.9901
55.9873
55.9846
55.9818
55.9791
55.9764
55.9736
55.9709
55.9682
55.9654
55.9627
55.96
55.9572
55.9545
55.9517
55.949
55.9463
55.9435
55.9408
55.9381
55.9353
55.9326
55.9299
55.9272
55.9244
55.9217
55.919
55.9162
55.9135
55.9108
55.9081
55.9053
55.9026
55.8999
55.8971
55.8944
55.8917
55.889
55.8862
55.8835
55.8808
55.8781
55.8753
55.8726
55.8699
55.8672
55.8645
55.8617
55.859
55.8563
55.8536
55.8508
55.8481
55.8454
55.8427
55.84
55.8373
55.8345
55.8318
55.8291
55.8264
55.8237
55.821
55.8182
55.8155
55.8128
55.8101
55.8074
55.8047
55.802
55.7992
55.7965
55.7938
55.7911
55.7884
55.7857
55.783
55.7803
55.7775
55.7748
55.7721
55.7694
55.7667
55.764
55.7613
55.7586
55.7559
55.7532
55.7505
55.7478
55.7451
55.7424
55.7397
55.7369
55.7342
55.7315
55.7288
55.7261
55.7234
55.7207
55.718
55.7153
55.7126
55.7099
55.7072
55.7045
55.7018
55.6991
55.6964
55.6937
55.691
55.6883
55.6856
55.6829
55.6802
55.6775
55.6749
55.6722
55.6695
55.6668
55.6641
55.6614
55.6587
55.656
55.6533
55.6506
55.6479
55.6452
55.6425
55.6398
55.6372
55.6345
55.6318
55.6291
55.6264
55.6237
55.621
55.6183
55.6156
55.613
55.6103
55.6076
55.6049
55.6022
55.5995
55.5968
55.5942
55.5915
55.5888
55.5861
55.5834
55.5807
55.5781
55.5754
55.5727
55.57
55.5673
55.5647
55.562
55.5593
55.5566
55.5539
55.5513
55.5486
55.5459
55.5432
55.5406
55.5379
55.5352
55.5325
55.5299
55.5272
55.5245
55.5218
55.5192
55.5165
55.5138
55.5111
55.5085
55.5058
55.5031
55.5005
55.4978
55.4951
55.4924
55.4898
55.4871
55.4844
55.4818
55.4791
55.4764
55.4738
55.4711
55.4684
55.4658
55.4631
55.4604
55.4578
55.4551
55.4524
55.4498
55.4471
55.4445
55.4418
55.4391
55.4365
55.4338
55.4311
55.4285
55.4258
55.4232
55.4205
55.4178
55.4152
55.4125
55.4099
55.4072
55.4046
55.4019
55.3992
55.3966
55.3939
55.3913
55.3886
55.386
55.3833
55.3806
55.378
55.3753
55.3727
55.37
55.3674
55.3647
55.3621
55.3594
55.3568
55.3541
55.3515
55.3488
55.3462
55.3435
55.3409
55.3382
55.3356
55.3329
55.3303
55.3276
55.325
55.3224
55.3197
55.3171
55.3144
55.3118
55.3091
55.3065
55.3038
55.3012
55.2986
55.2959
55.2933
55.2906
55.288
55.2854
55.2827
55.2801
55.2774
55.2748
55.2722
55.2695
55.2669
55.2642
55.2616
55.259
55.2563
55.2537
55.2511
55.2484
55.2458
55.2432
55.2405
55.2379
55.2352
55.2326
55.23
55.2274
55.2247
55.2221
55.2195
55.2168
55.2142
55.2116
55.2089
55.2063
55.2037
55.201
55.1984
55.1958
55.1932
55.1905
55.1879
55.1853
55.1827
55.18
55.1774
55.1748
55.1722
55.1695
55.1669
55.1643
55.1617
55.159
55.1564
55.1538
55.1512
55.1486
55.1459
55.1433
55.1407
55.1381
55.1355
55.1328
55.1302
55.1276
55.125
55.1224
55.1197
55.1171
55.1145
55.1119
55.1093
55.1067
55.104
55.1014
55.0988
55.0962
55.0936
55.091
55.0884
55.0858
55.0831
55.0805
55.0779
55.0753
55.0727
55.0701
55.0675
55.0649
55.0623
55.0597
55.057
55.0544
55.0518
55.0492
55.0466
55.044
55.0414
55.0388
55.0362
55.0336
55.031
55.0284
55.0258
55.0232
55.0206
55.018
55.0154
55.0128
55.0102
55.0076
55.005
55.0024
54.9998
54.9972
54.9946
54.992
54.9894
54.9868
54.9842
54.9816
54.979
54.9764
54.9738
54.9712
54.9686
54.966
54.9634
54.9608
54.9582
54.9556
54.953
54.9504
54.9478
54.9452
54.9426
54.9401
54.9375
54.9349
54.9323
54.9297
54.9271
54.9245
54.9219
54.9193
54.9168
54.9142
54.9116
54.909
54.9064
54.9038
54.9012
54.8986
54.8961
54.8935
54.8909
54.8883
54.8857
54.8831
54.8806
54.878
54.8754
54.8728
54.8702
54.8676
54.8651
54.8625
54.8599
54.8573
54.8547
54.8522
54.8496
54.847
54.8444
54.8419
54.8393
54.8367
54.8341
54.8315
54.829
54.8264
54.8238
54.8212
54.8187
54.8161
54.8135
54.811
54.8084
54.8058
54.8032
54.8007
54.7981
54.7955
54.793
54.7904
54.7878
54.7852
54.7827
54.7801
54.7775
54.775
54.7724
54.7698
54.7673
54.7647
54.7621
54.7596
54.757
54.7544
54.7519
54.7493
54.7467
54.7442
54.7416
54.7391
54.7365
54.7339
54.7314
54.7288
54.7262
54.7237
54.7211
54.7186
54.716
54.7134
54.7109
54.7083
54.7058
54.7032
54.7007
54.6981
54.6955
54.693
54.6904
54.6879
54.6853
54.6828
54.6802
54.6777
54.6751
54.6726
54.67
54.6674
54.6649
54.6623
54.6598
54.6572
54.6547
54.6521
54.6496
54.647
54.6445
54.6419
54.6394
54.6368
54.6343
54.6318
54.6292
54.6267
54.6241
54.6216
54.619
54.6165
54.6139
54.6114
54.6088
54.6063
54.6038
54.6012
54.5987
54.5961
54.5936
54.591
54.5885
54.586
54.5834
54.5809
54.5783
54.5758
54.5733
54.5707
54.5682
54.5656
54.5631
54.5606
54.558
54.5555
54.553
54.5504
54.5479
54.5454
54.5428
54.5403
54.5378
54.5352
54.5327
54.5302
54.5276
54.5251
54.5226
54.52
54.5175
54.515
54.5124
54.5099
54.5074
54.5049
54.5023
54.4998
54.4973
54.4947
54.4922
54.4897
54.4872
54.4846
54.4821
54.4796
54.4771
54.4745
54.472
54.4695
54.467
54.4644
54.4619
54.4594
54.4569
54.4543
54.4518
54.4493
54.4468
54.4443
54.4417
54.4392
54.4367
54.4342
54.4317
54.4292
54.4266
54.4241
54.4216
54.4191
54.4166
54.4141
54.4115
54.409
54.4065
54.404
54.4015
54.399
54.3965
54.3939
54.3914
54.3889
54.3864
54.3839
54.3814
54.3789
54.3764
54.3738
54.3713
54.3688
54.3663
54.3638
54.3613
54.3588
54.3563
54.3538
54.3513
54.3488
54.3463
54.3438
54.3412
54.3387
54.3362
54.3337
54.3312
54.3287
54.3262
54.3237
54.3212
54.3187
54.3162
54.3137
54.3112
54.3087
54.3062
54.3037
54.3012
54.2987
54.2962
54.2937
54.2912
54.2887
54.2862
54.2837
54.2812
54.2787
54.2762
54.2737
54.2712
54.2688
54.2663
54.2638
54.2613
54.2588
54.2563
54.2538
54.2513
54.2488
54.2463
54.2438
54.2413
54.2388
54.2364
54.2339
54.2314
54.2289
54.2264
54.2239
54.2214
54.2189
54.2164
54.214
54.2115
54.209
54.2065
54.204
54.2015
54.199
54.1966
54.1941
54.1916
54.1891
54.1866
54.1841
54.1817
54.1792
54.1767
54.1742
54.1717
54.1693
54.1668
54.1643
54.1618
54.1593
54.1569
54.1544
54.1519
54.1494
54.147
54.1445
54.142
54.1395
54.137
54.1346
54.1321
54.1296
54.1272
54.1247
54.1222
54.1197
54.1173
54.1148
54.1123
54.1098
54.1074
54.1049
54.1024
54.1
54.0975
54.095
54.0926
54.0901
54.0876
54.0851
54.0827
54.0802
54.0777
54.0753
54.0728
54.0703
54.0679
54.0654
54.063
54.0605
54.058
54.0556
54.0531
54.0506
54.0482
54.0457
54.0432
54.0408
54.0383
54.0359
54.0334
54.0309
54.0285
54.026
54.0236
54.0211
54.0186
54.0162
54.0137
54.0113
54.0088
54.0064
54.0039
54.0014
53.999
53.9965
53.9941
53.9916
53.9892
53.9867
53.9843
53.9818
53.9794
53.9769
53.9745
53.972
53.9696
53.9671
53.9647
53.9622
53.9598
53.9573
53.9549
53.9524
53.95
53.9475
53.9451
53.9426
53.9402
53.9377
53.9353
53.9328
53.9304
53.9279
53.9255
53.9231
53.9206
53.9182
53.9157
53.9133
53.9108
53.9084
53.906
53.9035
53.9011
53.8986
53.8962
53.8938
53.8913
53.8889
53.8864
53.884
53.8816
53.8791
53.8767
53.8742
53.8718
53.8694
53.8669
53.8645
53.8621
53.8596
53.8572
53.8548
53.8523
53.8499
53.8475
53.845
53.8426
53.8402
53.8377
53.8353
53.8329
53.8304
53.828
53.8256
53.8232
53.8207
53.8183
53.8159
53.8134
53.811
53.8086
53.8062
53.8037
53.8013
53.7989
53.7965
53.794
53.7916
53.7892
53.7868
53.7843
53.7819
53.7795
53.7771
53.7746
53.7722
53.7698
53.7674
53.765
53.7625
53.7601
53.7577
53.7553
53.7529
53.7504
53.748
53.7456
53.7432
53.7408
53.7383
53.7359
53.7335
53.7311
53.7287
53.7263
53.7239
53.7214
53.719
53.7166
53.7142
53.7118
53.7094
53.707
53.7045
53.7021
53.6997
53.6973
53.6949
53.6925
53.6901
53.6877
53.6853
53.6829
53.6804
53.678
53.6756
53.6732
53.6708
53.6684
53.666
53.6636
53.6612
53.6588
53.6564
53.654
53.6516
53.6492
53.6468
53.6444
53.642
53.6396
53.6372
53.6348
53.6324
53.63
53.6276
53.6252
53.6228
53.6204
53.618
53.6156
53.6132
53.6108
53.6084
53.606
53.6036
53.6012
53.5988
53.5964
53.594
53.5916
53.5892
53.5868
53.5844
53.582
53.5796
53.5772
53.5748
53.5724
53.57
53.5677
53.5653
53.5629
53.5605
53.5581
53.5557
53.5533
53.5509
53.5485
53.5461
53.5438
53.5414
53.539
53.5366
53.5342
53.5318
53.5294
53.5271
53.5247
53.5223
53.5199
53.5175
53.5151
53.5127
53.5104
53.508
53.5056
53.5032
53.5008
53.4985
53.4961
53.4937
53.4913
53.4889
53.4865
53.4842
53.4818
53.4794
53.477
53.4747
53.4723
53.4699
53.4675
53.4651
53.4628
53.4604
53.458
53.4556
53.4533
53.4509
53.4485
53.4462
53.4438
53.4414
53.439
53.4367
53.4343
53.4319
53.4295
53.4272
53.4248
53.4224
53.4201
53.4177
53.4153
53.413
53.4106
53.4082
53.4059
53.4035
53.4011
53.3988
53.3964
53.394
53.3917
53.3893
53.3869
53.3846
53.3822
53.3798
53.3775
53.3751
53.3727
53.3704
53.368
53.3657
53.3633
53.3609
53.3586
53.3562
53.3539
53.3515
53.3491
53.3468
53.3444
53.3421
53.3397
53.3374
53.335
53.3326
53.3303
53.3279
53.3256
53.3232
53.3209
53.3185
53.3162
53.3138
53.3114
53.3091
53.3067
53.3044
53.302
53.2997
53.2973
53.295
53.2926
53.2903
53.2879
53.2856
53.2832
53.2809
53.2785
53.2762
53.2738
53.2715
53.2691
53.2668
53.2645
53.2621
53.2598
53.2574
53.2551
53.2527
53.2504
53.248
53.2457
53.2433
53.241
53.2387
53.2363
53.234
53.2316
53.2293
53.227
53.2246
53.2223
53.2199
53.2176
53.2153
53.2129
53.2106
53.2082
53.2059
53.2036
53.2012
53.1989
53.1966
53.1942
53.1919
53.1896
53.1872
53.1849
53.1826
53.1802
53.1779
53.1756
53.1732
53.1709
53.1686
53.1662
53.1639
53.1616
53.1592
53.1569
53.1546
53.1522
53.1499
53.1476
53.1453
53.1429
53.1406
53.1383
53.1359
53.1336
53.1313
53.129
53.1266
53.1243
53.122
53.1197
53.1173
53.115
53.1127
53.1104
53.108
53.1057
53.1034
53.1011
53.0988
53.0964
53.0941
53.0918
53.0895
53.0872
53.0848
53.0825
53.0802
53.0779
53.0756
53.0732
53.0709
53.0686
53.0663
53.064
53.0617
53.0594
53.057
53.0547
53.0524
53.0501
53.0478
53.0455
53.0432
53.0408
53.0385
53.0362
53.0339
53.0316
53.0293
53.027
53.0247
53.0224
53.02
53.0177
53.0154
53.0131
53.0108
53.0085
53.0062
53.0039
53.0016
52.9993
52.997
52.9947
52.9924
52.9901
52.9877
52.9854
52.9831
52.9808
52.9785
52.9762
52.9739
52.9716
52.9693
52.967
52.9647
52.9624
52.9601
52.9578
52.9555
52.9532
52.9509
52.9486
52.9463
52.944
52.9417
52.9394
52.9371
52.9348
52.9325
52.9302
52.928
52.9257
52.9234
52.9211
52.9188
52.9165
52.9142
52.9119
52.9096
52.9073
52.905
52.9027
52.9004
52.8981
52.8959
52.8936
52.8913
52.889
52.8867
52.8844
52.8821
52.8798
52.8775
52.8753
52.873
52.8707
52.8684
52.8661
52.8638
52.8615
52.8592
52.857
52.8547
52.8524
52.8501
52.8478
52.8455
52.8433
52.841
52.8387
52.8364
52.8341
52.8319
52.8296
52.8273
52.825
52.8227
52.8205
52.8182
52.8159
52.8136
52.8113
52.8091
52.8068
52.8045
52.8022
52.8
52.7977
52.7954
52.7931
52.7909
52.7886
52.7863
52.784
52.7818
52.7795
52.7772
52.7749
52.7727
52.7704
52.7681
52.7659
52.7636
52.7613
52.7591
52.7568
52.7545
52.7522
52.75
52.7477
52.7454
52.7432
52.7409
52.7386
52.7364
52.7341
52.7318
52.7296
52.7273
52.725
52.7228
52.7205
52.7183
52.716
52.7137
52.7115
52.7092
52.7069
52.7047
52.7024
52.7002
52.6979
52.6956
52.6934
52.6911
52.6889
52.6866
52.6843
52.6821
52.6798
52.6776
52.6753
52.6731
52.6708
52.6685
52.6663
52.664
52.6618
52.6595
52.6573
52.655
52.6528
52.6505
52.6483
52.646
52.6438
52.6415
52.6393
52.637
52.6348
52.6325
52.6303
52.628
52.6258
52.6235
52.6213
52.619
52.6168
52.6145
52.6123
52.61
52.6078
52.6055
52.6033
52.601
52.5988
52.5965
52.5943
52.5921
52.5898
52.5876
52.5853
52.5831
52.5808
52.5786
52.5764
52.5741
52.5719
52.5696
52.5674
52.5652
52.5629
52.5607
52.5584
52.5562
52.554
52.5517
52.5495
52.5472
52.545
52.5428
52.5405
52.5383
52.5361
52.5338
52.5316
52.5294
52.5271
52.5249
52.5227
52.5204
52.5182
52.516
52.5137
52.5115
52.5093
52.507
52.5048
52.5026
52.5003
52.4981
52.4959
52.4937
52.4914
52.4892
52.487
52.4847
52.4825
52.4803
52.4781
52.4758
52.4736
52.4714
52.4692
52.4669
52.4647
52.4625
52.4603
52.458
52.4558
52.4536
52.4514
52.4491
52.4469
52.4447
52.4425
52.4403
52.438
52.4358
52.4336
52.4314
52.4292
52.4269
52.4247
52.4225
52.4203
52.4181
52.4159
52.4136
52.4114
52.4092
52.407
52.4048
52.4026
52.4004
52.3981
52.3959
52.3937
52.3915
52.3893
52.3871
52.3849
52.3826
52.3804
52.3782
52.376
52.3738
52.3716
52.3694
52.3672
52.365
52.3628
52.3605
52.3583
52.3561
52.3539
52.3517
52.3495
52.3473
52.3451
52.3429
52.3407
52.3385
52.3363
52.3341
52.3319
52.3297
52.3275
52.3253
52.3231
52.3209
52.3187
52.3165
52.3143
52.3121
52.3099
52.3077
52.3055
52.3033
52.3011
52.2989
52.2967
52.2945
52.2923
52.2901
52.2879
52.2857
52.2835
52.2813
52.2791
52.2769
52.2747
52.2725
52.2703
52.2681
52.2659
52.2637
52.2615
52.2593
52.2571
52.255
52.2528
52.2506
52.2484
52.2462
52.244
52.2418
52.2396
52.2374
52.2352
52.2331
52.2309
52.2287
52.2265
52.2243
52.2221
52.2199
52.2177
52.2156
52.2134
52.2112
52.209
52.2068
52.2046
52.2024
52.2003
52.1981
52.1959
52.1937
52.1915
52.1894
52.1872
52.185
52.1828
52.1806
52.1785
52.1763
52.1741
52.1719
52.1697
52.1676
52.1654
52.1632
52.161
52.1588
52.1567
52.1545
52.1523
52.1501
52.148
52.1458
52.1436
52.1414
52.1393
52.1371
52.1349
52.1328
52.1306
52.1284
52.1262
52.1241
52.1219
52.1197
52.1176
52.1154
52.1132
52.111
52.1089
52.1067
52.1045
52.1024
52.1002
52.098
52.0959
52.0937
52.0915
52.0894
52.0872
52.085
52.0829
52.0807
52.0785
52.0764
52.0742
52.0721
52.0699
52.0677
52.0656
52.0634
52.0612
52.0591
52.0569
52.0548
52.0526
52.0504
52.0483
52.0461
52.044
52.0418
52.0396
52.0375
52.0353
52.0332
52.031
52.0289
52.0267
52.0245
52.0224
52.0202
52.0181
52.0159
52.0138
52.0116
52.0095
52.0073
52.0052
52.003
52.0009
51.9987
51.9966
51.9944
51.9923
51.9901
51.988
51.9858
51.9837
51.9815
51.9794
51.9772
51.9751
51.9729
51.9708
51.9686
51.9665
51.9643
51.9622
51.96
51.9579
51.9557
51.9536
51.9515
51.9493
51.9472
51.945
51.9429
51.9407
51.9386
51.9365
51.9343
51.9322
51.93
51.9279
51.9257
51.9236
51.9215
51.9193
51.9172
51.9151
51.9129
51.9108
51.9086
51.9065
51.9044
51.9022
51.9001
51.898
51.8958
51.8937
51.8916
51.8894
51.8873
51.8851
51.883
51.8809
51.8787
51.8766
51.8745
51.8724
51.8702
51.8681
51.866
51.8638
51.8617
51.8596
51.8574
51.8553
51.8532
51.8511
51.8489
51.8468
51.8447
51.8425
51.8404
51.8383
51.8362
51.834
51.8319
51.8298
51.8277
51.8255
51.8234
51.8213
51.8192
51.817
51.8149
51.8128
51.8107
51.8086
51.8064
51.8043
51.8022
51.8001
51.798
51.7958
51.7937
51.7916
51.7895
51.7874
51.7852
51.7831
51.781