# vtk DataFile Version 2.0
vtk output
ASCII
DATASET STRUCTURED_GRID
DIMENSIONS 50 10 30
POINTS 15000 float
0 0 0
1 0 0
2 0 0
3 0 0
4 0 0
5 0 0
6 0 0
7 0 0
8 0 0
9 0 0
10 0 0
11 0 0
12 0 0
13 0 0
14 0 0
15 0 0
16 0 0
17 0 0
18 0 0
19 0 0
20 0 0
21 0 0
22 0 0
23 0 0
24 0 0
25 0 0
26 0 0
27 0 0
28 0 0
29 0 0
30 0 0
31 0 0
32 0 0
33 0 0
34 0 0
35 0 0
36 0 0
37 0 0
38 0 0
39 0 0
40 0 0
41 0 0
42 0 0
43 0 0
44 0 0
45 0 0
46 0 0
47 0 0
48 0 0
49 0 0
0 1 0
1 1 0
2 1 0
3 1 0
4 1 0
5 1 0
6 1 0
7 1 0
8 1 0
9 1 0
10 1 0
11 1 0
12 1 0
13 1 0
14 1 0
15 1 0
16 1 0
17 1 0
18 1 0
19 1 0
20 1 0
21 1 0
22 1 0
23 1 0
24 1 0
25 1 0
26 1 0
27 1 0
28 1 0
29 1 0
30 1 0
31 1 0
32 1 0
33 1 0
34 1 0
35 1 0
36 1 0
37 1 0
38 1 0
39 1 0
40 1 0
41 1 0
42 1 0
43 1 0
44 1 0
45 1 0
46 1 0
47 1 0
48 1 0
49 1 0
0 2 0
1 2 0
2 2 0
3 2 0
4 2 0
5 2 0
6 2 0
7 2 0
8 2 0
9 2 0
10 2 0
11 2 0
12 2 0
13 2 0
14 2 0
15 2 0
16 2 0
17 2 0
18 2 0
19 2 0
20 2 0
21 2 0
22 2 0
23 2 0
24 2 0
25 2 0
26 2 0
27 2 0
28 2 0
29 2 0
30 2 0
31 2 0
32 2 0
33 2 0
34 2 0
35 2 0
36 2 0
37 2 0
38 2 0
39 2 0
40 2 0
41 2 0
42 2 0
43 2 0
44 2 0
45 2 0
46 2 0
47 2 0
48 2 0
49 2 0
0 3 0
1 3 0
2 3 0
3 3 0
4 3 0
5 3 0
6 3 0
7 3 0
8 3 0
9 3 0
10 3 0
11 3 0
12 3 0
13 3 0
14 3 0
15 3 0
16 3 0
17 3 0
18 3 0
19 3 0
20 3 0
21 3 0
22 3 0
23 3 0
24 3 0
25 3 0
26 3 0
27 3 0
28 3 0
29 3 0
30 3 0
31 3 0
32 3 0
33 3 0
34 3 0
35 3 0
36 3 0
37 3 0
38 3 0
39 3 0
40 3 0
41 3 0
42 3 0
43 3 0
44 3 0
45 3 0
46 3 0
47 3 0
48 3 0
49 3 0
0 4 0
1 4 0
2 4 0
3 4 0
4 4 0
5 4 0
6 4 0
7 4 0
8 4 0
9 4 0
10 4 0
11 4 0
12 4 0
13 4 0
14 4 0
15 4 0
16 4 0
17 4 0
18 4 0
19 4 0
20 4 0
21 4 0
22 4 0
23 4 0
24 4 0
25 4 0
26 4 0
27 4 0
28 4 0
29 4 0
30 4 0
31 4 0
32 4 0
33 4 0
34 4 0
35 4 0
36 4 0
37 4 0
38 4 0
39 4 0
40 4 0
41 4 0
42 4 0
43 4 0
44 4 0
45 4 0
46 4 0
47 4 0
48 4 0
49 4 0
0 5 0
1 5 0
2 5 0
3 5 0
4 5 0
5 5 0
6 5 0
7 5 0
8 5 0
9 5 0
10 5 0
11 5 0
12 5 0
13 5 0
14 5 0
15 5 0
16 5 0
17 5 0
18 5 0
19 5 0
20 5 0
21 5 0
22 5 0
23 5 0
24 5 0
25 5 0
26 5 0
27 5 0
28 5 0
29 5 0
30 5 0
31 5 0
32 5 0
33 5 0
34 5 0
35 5 0
36 5 0
37 5 0
38 5 0
39 5 0
40 5 0
41 5 0
42 5 0
43 5 0
44 5 0
45 5 0
46 5 0
47 5 0
48 5 0
49 5 0
0 6 0
1 6 0
2 6 0
3 6 0
4 6 0
5 6 0
6 6 0
7 6 0
8 6 0
9 6 0
10 6 0
11 6 0
12 6 0
13 6 0
14 6 0
15 6 0
16 6 0
17 6 0
18 6 0
19 6 0
20 6 0
21 6 0
22 6 0
23 6 0
24 6 0
25 6 0
26 6 0
27 6 0
28 6 0
29 6 0
30 6 0
31 6 0
32 6 0
33 6 0
34 6 0
35 6 0
36 6 0
37 6 0
38 6 0
39 6 0
40 6 0
41 6 0
42 6 0
43 6 0
44 6 0
45 6 0
46 6 0
47 6 0
48 6 0
49 6 0
0 7 0
1 7 0
2 7 0
3 7 0
4 7 0
5 7 0
6 7 0
7 7 0
8 7 0
9 7 0
10 7 0
11 7 0
12 7 0
13 7 0
14 7 0
15 7 0
16 7 0
17 7 0
18 7 0
19 7 0
20 7 0
21 7 0
22 7 0
23 7 0
24 7 0
25 7 0
26 7 0
27 7 0
28 7 0
29 7 0
30 7 0
31 7 0
32 7 0
33 7 0
34 7 0
35 7 0
36 7 0
37 7 0
38 7 0
39 7 0
40 7 0
41 7 0
42 7 0
43 7 0
44 7 0
45 7 0
46 7 0
47 7 0
48 7 0
49 7 0
0 8 0
1 8 0
2 8 0
3 8 0
4 8 0
5 8 0
6 8 0
7 8 0
8 8 0
9 8 0
10 8 0
11 8 0
12 8 0
13 8 0
14 8 0
15 8 0
16 8 0
17 8 0
18 8 0
19 8 0
20 8 0
21 8 0
22 8 0
23 8 0
24 8 0
25 8 0
26 8 0
27 8 0
28 8 0
29 8 0
30 8 0
31 8 0
32 8 0
33 8 0
34 8 0
35 8 0
36 8 0
37 8 0
38 8 0
39 8 0
40 8 0
41 8 0
42 8 0
43 8 0
44 8 0
45 8 0
46 8 0
47 8 0
48 8 0
49 8 0
0 9 0
1 9 0
2 9 0
3 9 0
4 9 0
5 9 0
6 9 0
7 9 0
8 9 0
9 9 0
10 9 0
11 9 0
12 9 0
13 9 0
14 9 0
15 9 0
16 9 0
17 9 0
18 9 0
19 9 0
20 9 0
21 9 0
22 9 0
23 9 0
24 9 0
25 9 0
26 9 0
27 9 0
28 9 0
29 9 0
30 9 0
31 9 0
32 9 0
33 9 0
34 9 0
35 9 0
36 9 0
37 9 0
38 9 0
39 9 0
40 9 0
41 9 0
42 9 0
43 9 0
44 9 0
45 9 0
46 9 0
47 9 0
48 9 0
49 9 0
0 0 1
1 0 1
2 0 1
3 0 1
4 0 1
5 0 1
6 0 1
7 0 1
8 0 1
9 0 1
10 0 1
11 0 1
12 0 1
13 0 1
14 0 1
15 0 1
16 0 1
17 0 1
18 0 1
19 0 1
20 0 1
21 0 1
22 0 1
23 0 1
24 0 1
25 0 1
26 0 1
27 0 1
28 0 1
29 0 1
30 0 1
31 0 1
32 0 1
33 0 1
34 0 1
35 0 1
36 0 1
37 0 1
38 0 1
39 0 1
40 0 1
41 0 1
42 0 1
43 0 1
44 0 1
45 0 1
46 0 1
47 0 1
48 0 1
49 0 1
0 1 1
1 1 1
2 1 1
3 1 1
4 1 1
5 1 1
6 1 1
7 1 1
8 1 1
9 1 1
10 1 1
11 1 1
12 1 1
13 1 1
14 1 1
15 1 1
16 1 1
17 1 1
18 1 1
19 1 1
20 1 1
21 1 1
22 1 1
23 1 1
24 1 1
25 1 1
26 1 1
27 1 1
28 1 1
29 1 1
30 1 1
31 1 1
32 1 1
33 1 1
34 1 1
35 1 1
36 1 1
37 1 1
38 1 1
39 1 1
40 1 1
41 1 1
42 1 1
43 1 1
44 1 1
45 1 1
46 1 1
47 1 1
48 1 1
49 1 1
0 2 1
1 2 1
2 2 1
3 2 1
4 2 1
5 2 1
6 2 1
7 2 1
8 2 1
9 2 1
10 2 1
11 2 1
12 2 1
13 2 1
14 2 1
15 2 1
16 2 1
17 2 1
18 2 1
19 2 1
20 2 1
21 2 1
22 2 1
23 2 1
24 2 1
25 2 1
26 2 1
27 2 1
28 2 1
29 2 1
30 2 1
31 2 1
32 2 1
33 2 1
34 2 1
35 2 1
36 2 1
37 2 1
38 2 1
39 2 1
40 2 1
41 2 1
42 2 1
43 2 1
44 2 1
45 2 1
46 2 1
47 2 1
48 2 1
49 2 1
0 3 1
1 3 1
2 3 1
3 3 1
4 3 1
5 3 1
6 3 1
7 3 1
8 3 1
9 3 1
10 3 1
11 3 1
12 3 1
13 3 1
14 3 1
15 3 1
16 3 1
17 3 1
18 3 1
19 3 1
20 3 1
21 3 1
22 3 1
23 3 1
24 3 1
25 3 1
26 3 1
27 3 1
28 3 1
29 3 1
30 3 1
31 3 1
32 3 1
33 3 1
34 3 1
35 3 1
36 3 1
37 3 1
38 3 1
39 3 1
40 3 1
41 3 1
42 3 1
43 3 1
44 3 1
45 3 1
46 3 1
47 3 1
48 3 1
49 3 1
0 4 1
1 4 1
2 4 1
3 4 1
4 4 1
5 4 1
6 4 1
7 4 1
8 4 1
9 4 1
10 4 1
11 4 1
12 4 1
13 4 1
14 4 1
15 4 1
16 4 1
17 4 1
18 4 1
19 4 1
20 4 1
21 4 1
22 4 1
23 4 1
24 4 1
25 4 1
26 4 1
27 4 1
28 4 1
29 4 1
30 4 1
31 4 1
32 4 1
33 4 1
34 4 1
35 4 1
36 4 1
37 4 1
38 4 1
39 4 1
40 4 1
41 4 1
42 4 1
43 4 1
44 4 1
45 4 1
46 4 1
47 4 1
48 4 1
49 4 1
0 5 1
1 5 1
2 5 1
3 5 1
4 5 1
5 5 1
6 5 1
7 5 1
8 5 1
9 5 1
10 5 1
11 5 1
12 5 1
13 5 1
14 5 1
15 5 1
16 5 1
17 5 1
18 5 1
19 5 1
20 5 1
21 5 1
22 5 1
23 5 1
24 5 1
25 5 1
26 5 1
27 5 1
28 5 1
29 5 1
30 5 1
31 5 1
32 5 1
33 5 1
34 5 1
35 5 1
36 5 1
37 5 1
38 5 1
39 5 1
40 5 1
41 5 1
42 5 1
43 5 1
44 5 1
45 5 1
46 5 1
47 5 1
48 5 1
49 5 1
0 6 1
1 6 1
2 6 1
3 6 1
4 6 1
5 6 1
6 6 1
7 6 1
8 6 1
9 6 1
10 6 1
11 6 1
12 6 1
13 6 1
14 6 1
15 6 1
16 6 1
17 6 1
18 6 1
19 6 1
20 6 1
21 6 1
22 6 1
23 6 1
24 6 1
25 6 1
26 6 1
27 6 1
28 6 1
29 6 1
30 6 1
31 6 1
32 6 1
33 6 1
34 6 1
35 6 1
36 6 1
37 6 1
38 6 1
39 6 1
40 6 1
41 6 1
42 6 1
43 6 1
44 6 1
45 6 1
46 6 1
47 6 1
48 6 1
49 6 1
0 7 1
1 7 1
2 7 1
3 7 1
4 7 1
5 7 1
6 7 1
7 7 1
8 7 1
9 7 1
10 7 1
11 7 1
12 7 1
13 7 1
14 7 1
15 7 1
16 7 1
17 7 1
18 7 1
19 7 1
20 7 1
21 7 1
22 7 1
23 7 1
24 7 1
25 7 1
26 7 1
27 7 1
28 7 1
29 7 1
30 7 1
31 7 1
32 7 1
33 7 1
34 7 1
35 7 1
36 7 1
37 7 1
38 7 1
39 7 1
40 7 1
41 7 1
42 7 1
43 7 1
44 7 1
45 7 1
46 7 1
47 7 1
48 7 1
49 7 1
0 8 1
1 8 1
2 8 1
3 8 1
4 8 1
5 8 1
6 8 1
7 8 1
8 8 1
9 8 1
10 8 1
11 8 1
12 8 1
13 8 1
14 8 1
15 8 1
16 8 1
17 8 1
18 8 1
19 8 1
20 8 1
21 8 1
22 8 1
23 8 1
24 8 1
25 8 1
26 8 1
27 8 1
28 8 1
29 8 1
30 8 1
31 8 1
32 8 1
33 8 1
34 8 1
35 8 1
36 8 1
37 8 1
38 8 1
39 8 1
40 8 1
41 8 1
42 8 1
43 8 1
44 8 1
45 8 1
46 8 1
47 8 1
48 8 1
49 8 1
0 9 1
1 9 1
2 9 1
3 9 1
4 9 1
5 9 1
6 9 1
7 9 1
8 9 1
9 9 1
10 9 1
11 9 1
12 9 1
13 9 1
14 9 1
15 9 1
16 9 1
17 9 1
18 9 1
19 9 1
20 9 1
21 9 1
22 9 1
23 9 1
24 9 1
25 9 1
26 9 1
27 9 1
28 9 1
29 9 1
30 9 1
31 9 1
32 9 1
33 9 1
34 9 1
35 9 1
36 9 1
37 9 1
38 9 1
39 9 1
40 9 1
41 9 1
42 9 1
43 9 1
44 9 1
45 9 1
46 9 1
47 9 1
48 9 1
49 9 1
0 0 2
1 0 2
2 0 2
3 0 2
4 0 2
5 0 2
6 0 2
7 0 2
8 0 2
9 0 2
10 0 2
11 0 2
12 0 2
13 0 2
14 0 2
15 0 2
16 0 2
17 0 2
18 0 2
19 0 2
20 0 2
21 0 2
22 0 2
23 0 2
24 0 2
25 0 2
26 0 2
27 0 2
28 0 2
29 0 2
30 0 2
31 0 2
32 0 2
33 0 2
34 0 2
35 0 2
36 0 2
37 0 2
38 0 2
39 0 2
40 0 2
41 0 2
42 0 2
43 0 2
44 0 2
45 0 2
46 0 2
47 0 2
48 0 2
49 0 2
0 1 2
1 1 2
2 1 2
3 1 2
4 1 2
5 1 2
6 1 2
7 1 2
8 1 2
9 1 2
10 1 2
11 1 2
12 1 2
13 1 2
14 1 2
15 1 2
16 1 2
17 1 2
18 1 2
19 1 2
20 1 2
21 1 2
22 1 2
23 1 2
24 1 2
25 1 2
26 1 2
27 1 2
28 1 2
29 1 2
30 1 2
31 1 2
32 1 2
33 1 2
34 1 2
35 1 2
36 1 2
37 1 2
38 1 2
39 1 2
40 1 2
41 1 2
42 1 2
43 1 2
44 1 2
45 1 2
46 1 2
47 1 2
48 1 2
49 1 2
0 2 2
1 2 2
2 2 2
3 2 2
4 2 2
5 2 2
6 2 2
7 2 2
8 2 2
9 2 2
10 2 2
11 2 2
12 2 2
13 2 2
14 2 2
15 2 2
16 2 2
17 2 2
18 2 2
19 2 2
20 2 2
21 2 2
22 2 2
23 2 2
24 2 2
25 2 2
26 2 2
27 2 2
28 2 2
29 2 2
30 2 2
31 2 2
32 2 2
33 2 2
34 2 2
35 2 2
36 2 2
37 2 2
38 2 2
39 2 2
40 2 2
41 2 2
42 2 2
43 2 2
44 2 2
45 2 2
46 2 2
47 2 2
48 2 2
49 2 2
0 3 2
1 3 2
2 3 2
3 3 2
4 3 2
5 3 2
6 3 2
7 3 2
8 3 2
9 3 2
10 3 2
11 3 2
12 3 2
13 3 2
14 3 2
15 3 2
16 3 2
17 3 2
18 3 2
19 3 2
20 3 2
21 3 2
22 3 2
23 3 2
24 3 2
25 3 2
26 3 2
27 3 2
28 3 2
29 3 2
30 3 2
31 3 2
32 3 2
33 3 2
34 3 2
35 3 2
36 3 2
37 3 2
38 3 2
39 3 2
40 3 2
41 3 2
42 3 2
43 3 2
44 3 2
45 3 2
46 3 2
47 3 2
48 3 2
49 3 2
0 4 2
1 4 2
2 4 2
3 4 2
4 4 2
5 4 2
6 4 2
7 4 2
8 4 2
9 4 2
10 4 2
11 4 2
12 4 2
13 4 2
14 4 2
15 4 2
16 4 2
17 4 2
18 4 2
19 4 2
20 4 2
21 4 2
22 4 2
23 4 2
24 4 2
25 4 2
26 4 2
27 4 2
28 4 2
29 4 2
30 4 2
31 4 2
32 4 2
33 4 2
34 4 2
35 4 2
36 4 2
37 4 2
38 4 2
39 4 2
40 4 2
41 4 2
42 4 2
43 4 2
44 4 2
45 4 2
46 4 2
47 4 2
48 4 2
49 4 2
0 5 2
1 5 2
2 5 2
3 5 2
4 5 2
5 5 2
6 5 2
7 5 2
8 5 2
9 5 2
10 5 2
11 5 2
12 5 2
13 5 2
14 5 2
15 5 2
16 5 2
17 5 2
18 5 2
19 5 2
20 5 2
21 5 2
22 5 2
23 5 2
24 5 2
25 5 2
26 5 2
27 5 2
28 5 2
29 5 2
30 5 2
31 5 2
32 5 2
33 5 2
34 5 2
35 5 2
36 5 2
37 5 2
38 5 2
39 5 2
40 5 2
41 5 2
42 5 2
43 5 2
44 5 2
45 5 2
46 5 2
47 5 2
48 5 2
49 5 2
0 6 2
1 6 2
2 6 2
3 6 2
4 6 2
5 6 2
6 6 2
7 6 2
8 6 2
9 6 2
10 6 2
11 6 2
12 6 2
13 6 2
14 6 2
15 6 2
16 6 2
17 6 2
18 6 2
19 6 2
20 6 2
21 6 2
22 6 2
23 6 2
24 6 2
25 6 2
26 6 2
27 6 2
28 6 2
29 6 2
30 6 2
31 6 2
32 6 2
33 6 2
34 6 2
35 6 2
36 6 2
37 6 2
38 6 2
39 6 2
40 6 2
41 6 2
42 6 2
43 6 2
44 6 2
45 6 2
46 6 2
47 6 2
48 6 2
49 6 2
0 7 2
1 7 2
2 7 2
3 7 2
4 7 2
5 7 2
6 7 2
7 7 2
8 7 2
9 7 2
10 7 2
11 7 2
12 7 2
13 7 2
14 7 2
15 7 2
16 7 2
17 7 2
18 7 2
19 7 2
20 7 2
21 7 2
22 7 2
23 7 2
24 7 2
25 7 2
26 7 2
27 7 2
28 7 2
29 7 2
30 7 2
31 7 2
32 7 2
33 7 2
34 7 2
35 7 2
36 7 2
37 7 2
38 7 2
39 7 2
40 7 2
41 7 2
42 7 2
43 7 2
44 7 2
45 7 2
46 7 2
47 7 2
48 7 2
49 7 2
0 8 2
1 8 2
2 8 2
3 8 2
4 8 2
5 8 2
6 8 2
7 8 2
8 8 2
9 8 2
10 8 2
11 8 2
12 8 2
13 8 2
14 8 2
15 8 2
16 8 2
17 8 2
18 8 2
19 8 2
20 8 2
21 8 2
22 8 2
23 8 2
24 8 2
25 8 2
26 8 2
27 8 2
28 8 2
29 8 2
30 8 2
31 8 2
32 8 2
33 8 2
34 8 2
35 8 2
36 8 2
37 8 2
38 8 2
39 8 2
40 8 2
41 8 2
42 8 2
43 8 2
44 8 2
45 8 2
46 8 2
47 8 2
48 8 2
49 8 2
0 9 2
1 9 2
2 9 2
3 9 2
4 9 2
[...]
POINT_DATA 15000
SCALARS sol123 float
LOOKUP_TABLE default
56.2823
56.2792
56.2762
56.2732
56.2701
56.2671
56.264
56.261
56.2579
56.2549
56.2518
56.2488
56.2457
56.2427
56.2397
56.2366
56.2336
56.2305
56.2275
56.2244
56.2214
56.2184
56.2153
56.2123
56.2092
56.2062
56.2032
56.2001
56.1971
56.194
56.191
56.188
56.1849
56.1819
56.1789
56.1758
56.1728
56.1698
56.1667
56.1637
56.1607
56.1576
56.1546
56.1516
56.1485
56.1455
56.1425
56.1394
56.1364
56.1334
56.1304
56.1273
56.1243
56.1213
56.1182
56.1152
56.1122
56.1092
56.1061
56.1031
56.1001
56.0971
56.094
56.091
56.088
56.085
56.0819
56.0789
56.0759
56.0729
56.0699
56.0668
56.0638
56.0608
56.0578
56.0548
56.0517
56.0487
56.0457
56.0427
56.0397
56.0367
56.0336
56.0306
56.0276
56.0246
56.0216
56.0186
56.0156
56.0125
56.0095
56.0065
56.0035
56.0005
55.9975
55.9945
55.9915
55.9884
55.9854
55.9824
55.9794
55.9764
55.9734
55.9704
55.9674
55.9644
55.9614
55.9584
55.9554
55.9524
55.9494
55.9463
55.9433
55.9403
55.9373
55.9343
55.9313
55.9283
55.9253
55.9223
55.9193
55.9163
55.9133
55.9103
55.9073
55.9043
55.9013
55.8983
55.8953
55.8923
55.8893
55.8863
55.8833
55.8804
55.8774
55.8744
55.8714
55.8684
55.8654
55.8624
55.8594
55.8564
55.8534
55.8504
55.8474
55.8444
55.8414
55.8385
55.8355
55.8325
55.8295
55.8265
55.8235
55.8205
55.8175
55.8146
55.8116
55.8086
55.8056
55.8026
55.7996
55.7966
55.7937
55.7907
55.7877
55.7847
55.7817
55.7787
55.7758
55.7728
55.7698
55.7668
55.7638
55.7609
55.7579
55.7549
55.7519
55.7489
55.746
55.743
55.74
55.737
55.7341
55.7311
55.7281
55.7251
55.7222
55.7192
55.7162
55.7132
55.7103
55.7073
55.7043
55.7014
55.6984
55.6954
55.6924
55.6895
55.6865
55.6835
55.6806
55.6776
55.6746
55.6717
55.6687
55.6657
55.6628
55.6598
55.6568
55.6539
55.6509
55.6479
55.645
55.642
55.639
55.6361
55.6331
55.6302
55.6272
55.6242
55.6213
55.6183
55.6153
55.6124
55.6094
55.6065
55.6035
55.6006
55.5976
55.5946
55.5917
55.5887
55.5858
55.5828
55.5799
55.5769
55.574
55.571
55.568
55.5651
55.5621
55.5592
55.5562
55.5533
55.5503
55.5474
55.5444
55.5415
55.5385
55.5356
55.5326
55.5297
55.5267
55.5238
55.5208
55.5179
55.5149
55.512
55.5091
55.5061
55.5032
55.5002
55.4973
55.4943
55.4914
55.4884
55.4855
55.4826
55.4796
55.4767
55.4737
55.4708
55.4679
55.4649
55.462
55.459
55.4561
55.4532
55.4502
55.4473
55.4443
55.4414
55.4385
55.4355
55.4326
55.4297
55.4267
55.4238
55.4209
55.4179
55.415
55.4121
55.4091
55.4062
55.4033
55.4003
55.3974
55.3945
55.3916
55.3886
55.3857
55.3828
55.3798
55.3769
55.374
55.3711
55.3681
55.3652
55.3623
55.3593
55.3564
55.3535
55.3506
55.3476
55.3447
55.3418
55.3389
55.336
55.333
55.3301
55.3272
55.3243
55.3214
55.3184
55.3155
55.3126
55.3097
55.3068
55.3038
55.3009
55.298
55.2951
55.2922
55.2893
55.2863
55.2834
55.2805
55.2776
55.2747
55.2718
55.2689
55.2659
55.263
55.2601
55.2572
55.2543
55.2514
55.2485
55.2456
55.2427
55.2397
55.2368
55.2339
55.231
55.2281
55.2252
55.2223
55.2194
55.2165
55.2136
55.2107
55.2078
55.2049
55.202
55.1991
55.1962
55.1932
55.1903
55.1874
55.1845
55.1816
55.1787
55.1758
55.1729
55.17
55.1671
55.1642
55.1613
55.1584
55.1555
55.1526
55.1497
55.1469
55.144
55.1411
55.1382
55.1353
55.1324
55.1295
55.1266
55.1237
55.1208
55.1179
55.115
55.1121
55.1092
55.1063
55.1034
55.1006
55.0977
55.0948
55.0919
55.089
55.0861
55.0832
55.0803
55.0774
55.0746
55.0717
55.0688
55.0659
55.063
55.0601
55.0572
55.0544
55.0515
55.0486
55.0457
55.0428
55.04
55.0371
55.0342
55.0313
55.0284
55.0255
55.0227
55.0198
55.0169
55.014
55.0112
55.0083
55.0054
55.0025
54.9996
54.9968
54.9939
54.991
54.9881
54.9853
54.9824
54.9795
54.9766
54.9738
54.9709
54.968
54.9652
54.9623
54.9594
54.9565
54.9537
54.9508
54.9479
54.9451
54.9422
54.9393
54.9365
54.9336
54.9307
54.9279
54.925
54.9221
54.9193
54.9164
54.9135
54.9107
54.9078
54.9049
54.9021
54.8992
54.8963
54.8935
54.8906
54.8878
54.8849
54.882
54.8792
54.8763
54.8735
54.8706
54.8677
54.8649
54.862
54.8592
54.8563
54.8534
54.8506
54.8477
54.8449
54.842
54.8392
54.8363
54.8335
54.8306
54.8278
54.8249
54.8221
54.8192
54.8163
54.8135
54.8106
54.8078
54.8049
54.8021
54.7992
54.7964
54.7935
54.7907
54.7879
54.785
54.7822
54.7793
54.7765
54.7736
54.7708
54.7679
54.7651
54.7622
54.7594
54.7566
54.7537
54.7509
54.748
54.7452
54.7423
54.7395
54.7367
54.7338
54.731
54.7281
54.7253
54.7225
54.7196
54.7168
54.7139
54.7111
54.7083
54.7054
54.7026
54.6998
54.6969
54.6941
54.6913
54.6884
54.6856
54.6828
54.6799
54.6771
54.6743
54.6714
54.6686
54.6658
54.6629
54.6601
54.6573
54.6544
54.6516
54.6488
54.646
54.6431
54.6403
54.6375
54.6346
54.6318
54.629
54.6262
54.6233
54.6205
54.6177
54.6149
54.612
54.6092
54.6064
54.6036
54.6008
54.5979
54.5951
54.5923
54.5895
54.5867
54.5838
54.581
54.5782
54.5754
54.5726
54.5697
54.5669
54.5641
54.5613
54.5585
54.5557
54.5528
54.55
54.5472
54.5444
54.5416
54.5388
54.536
54.5331
54.5303
54.5275
54.5247
54.5219
54.5191
54.5163
54.5135
54.5107
54.5078
54.505
54.5022
54.4994
54.4966
54.4938
54.491
54.4882
54.4854
54.4826
54.4798
54.477
54.4742
54.4714
54.4686
54.4657
54.4629
54.4601
54.4573
54.4545
54.4517
54.4489
54.4461
54.4433
54.4405
54.4377
54.4349
54.4321
54.4293
54.4265
54.4237
54.4209
54.4181
54.4154
54.4126
54.4098
54.407
54.4042
54.4014
54.3986
54.3958
54.393
54.3902
54.3874
54.3846
54.3818
54.379
54.3762
54.3734
54.3707
54.3679
54.3651
54.3623
54.3595
54.3567
54.3539
54.3511
54.3483
54.3456
54.3428
54.34
54.3372
54.3344
54.3316
54.3288
54.3261
54.3233
54.3205
54.3177
54.3149
54.3121
54.3094
54.3066
54.3038
54.301
54.2982
54.2955
54.2927
54.2899
54.2871
54.2843
54.2816
54.2788
54.276
54.2732
54.2705
54.2677
54.2649
54.2621
54.2594
54.2566
54.2538
54.251
54.2483
54.2455
54.2427
54.2399
54.2372
54.2344
54.2316
54.2289
54.2261
54.2233
54.2205
54.2178
54.215
54.2122
54.2095
54.2067
54.2039
54.2012
54.1984
54.1956
54.1929
54.1901
54.1873
54.1846
54.1818
54.179
54.1763
54.1735
54.1708
54.168
54.1652
54.1625
54.1597
54.1569
54.1542
54.1514
54.1487
54.1459
54.1431
54.1404
54.1376
54.1349
54.1321
54.1294
54.1266
54.1238
54.1211
54.1183
54.1156
54.1128
54.1101
54.1073
54.1046
54.1018
54.0991
54.0963
54.0935
54.0908
54.088
54.0853
54.0825
54.0798
54.077
54.0743
54.0715
54.0688
54.066
54.0633
54.0606
54.0578
54.0551
54.0523
54.0496
54.0468
54.0441
54.0413
54.0386
54.0358
54.0331
54.0304
54.0276
54.0249
54.0221
54.0194
54.0166
54.0139
54.0112
54.0084
54.0057
54.0029
54.0002
53.9975
53.9947
53.992
53.9893
53.9865
53.9838
53.981
53.9783
53.9756
53.9728
53.9701
53.9674
53.9646
53.9619
53.9592
53.9564
53.9537
53.951
53.9482
53.9455
53.9428
53.94
53.9373
53.9346
53.9318
53.9291
53.9264
53.9237
53.9209
53.9182
53.9155
53.9128
53.91
53.9073
53.9046
53.9018
53.8991
53.8964
53.8937
53.8909
53.8882
53.8855
53.8828
53.8801
53.8773
53.8746
53.8719
53.8692
53.8665
53.8637
53.861
53.8583
53.8556
53.8529
53.8501
53.8474
53.8447
53.842
53.8393
53.8366
53.8338
53.8311
53.8284
53.8257
53.823
53.8203
53.8175
53.8148
53.8121
53.8094
53.8067
53.804
53.8013
53.7986
53.7959
53.7931
53.7904
53.7877
53.785
53.7823
53.7796
53.7769
53.7742
53.7715
53.7688
53.7661
53.7634
53.7606
53.7579
53.7552
53.7525
53.7498
53.7471
53.7444
53.7417
53.739
53.7363
53.7336
53.7309
53.7282
53.7255
53.7228
53.7201
53.7174
53.7147
53.712
53.7093
53.7066
53.7039
53.7012
53.6985
53.6958
53.6931
53.6904
53.6877
53.685
53.6823
53.6797
53.677
53.6743
53.6716
53.6689
53.6662
53.6635
53.6608
53.6581
53.6554
53.6527
53.65
53.6473
53.6447
53.642
53.6393
53.6366
53.6339
53.6312
53.6285
53.6258
53.6232
53.6205
53.6178
53.6151
53.6124
53.6097
53.607
53.6044
53.6017
53.599
53.5963
53.5936
53.5909
53.5883
53.5856
53.5829
53.5802
53.5775
53.5749
53.5722
53.5695
53.5668
53.5642
53.5615
53.5588
53.5561
53.5534
53.5508
53.5481
53.5454
53.5427
53.5401
53.5374
53.5347
53.532
53.5294
53.5267
53.524
53.5214
53.5187
53.516
53.5133
53.5107
53.508
53.5053
53.5027
53.5
53.4973
53.4947
53.492
53.4893
53.4866
53.484
53.4813
53.4786
53.476
53.4733
53.4707
53.468
53.4653
53.4627
53.46
53.4573
53.4547
53.452
53.4493
53.4467
53.444
53.4414
53.4387
53.436
53.4334
53.4307
53.4281
53.4254
53.4227
53.4201
53.4174
53.4148
53.4121
53.4095
53.4068
53.4042
53.4015
53.3988
53.3962
53.3935
53.3909
53.3882
53.3856
53.3829
53.3803
53.3776
53.375
53.3723
53.3697
53.367
53.3644
53.3617
53.3591
53.3564
53.3538
53.3511
53.3485
53.3458
53.3432
53.3405
53.3379
53.3352
53.3326
53.3299
53.3273
53.3247
53.322
53.3194
53.3167
53.3141
53.3114
53.3088
53.3062
53.3035
53.3009
53.2982
53.2956
53.293
53.2903
53.2877
53.285
53.2824
53.2798
53.2771
53.2745
53.2718
53.2692
53.2666
53.2639
53.2613
53.2587
53.256
53.2534
53.2508
53.2481
53.2455
53.2429
53.2402
53.2376
53.235
53.2323
53.2297
53.2271
53.2244
53.2218
53.2192
53.2166
53.2139
53.2113
53.2087
53.206
53.2034
53.2008
53.1982
53.1955
53.1929
53.1903
53.1877
53.185
53.1824
53.1798
53.1772
53.1745
53.1719
53.1693
53.1667
53.1641
53.1614
53.1588
53.1562
53.1536
53.151
53.1483
53.1457
53.1431
53.1405
53.1379
53.1352
53.1326
53.13
53.1274
53.1248
53.1222
53.1195
53.1169
53.1143
53.1117
53.1091
53.1065
53.1039
53.1012
53.0986
53.096
53.0934
53.0908
53.0882
53.0856
53.083
53.0804
53.0778
53.0751
53.0725
53.0699
53.0673
53.0647
53.0621
53.0595
53.0569
53.0543
53.0517
53.0491
53.0465
53.0439
53.0413
53.0387
53.0361
53.0334
53.0308
53.0282
53.0256
53.023
53.0204
53.0178
53.0152
53.0126
53.01
53.0074
53.0048
53.0022
52.9996
52.997
52.9944
52.9919
52.9893
52.9867
52.9841
52.9815
52.9789
52.9763
52.9737
52.9711
52.9685
52.9659
52.9633
52.9607
52.9581
52.9555
52.9529
52.9503
52.9478
52.9452
52.9426
52.94
52.9374
52.9348
52.9322
52.9296
52.927
52.9245
52.9219
52.9193
52.9167
52.9141
52.9115
52.9089
52.9064
52.9038
52.9012
52.8986
52.896
52.8934
52.8909
52.8883
52.8857
52.8831
52.8805
52.8779
52.8754
52.8728
52.8702
52.8676
52.865
52.8625
52.8599
52.8573
52.8547
52.8522
52.8496
52.847
52.8444
52.8419
52.8393
52.8367
52.8341
52.8316
52.829
52.8264
52.8238
52.8213
52.8187
52.8161
52.8135
52.811
52.8084
52.8058
52.8033
52.8007
52.7981
52.7956
52.793
52.7904
52.7878
52.7853
52.7827
52.7801
52.7776
52.775
52.7724
52.7699
52.7673
52.7648
52.7622
52.7596
52.7571
52.7545
52.7519
52.7494
52.7468
52.7443
52.7417
52.7391
52.7366
52.734
52.7314
52.7289
52.7263
52.7238
52.7212
52.7187
52.7161
52.7135
52.711
52.7084
52.7059
52.7033
52.7008
52.6982
52.6956
52.6931
52.6905
52.688
52.6854
52.6829
52.6803
52.6778
52.6752
52.6727
52.6701
52.6676
52.665
52.6625
52.6599
52.6574
52.6548
52.6523
52.6497
52.6472
52.6446
52.6421
52.6395
52.637
52.6344
52.6319
52.6294
52.6268
52.6243
52.6217
52.6192
52.6166
52.6141
52.6116
52.609
52.6065
52.6039
52.6014
52.5988
52.5963
52.5938
52.5912
52.5887
52.5861
52.5836
52.5811
52.5785
52.576
52.5735
52.5709
52.5684
52.5658
52.5633
52.5608
52.5582
52.5557
52.5532
52.5506
52.5481
52.5456
52.543
52.5405
52.538
52.5354
52.5329
52.5304
52.5279
52.5253
52.5228
52.5203
52.5177
52.5152
52.5127
52.5101
52.5076
52.5051
52.5026
52.5
52.4975
52.495
52.4925
52.4899
52.4874
52.4849
52.4824
52.4798
52.4773
52.4748
52.4723
52.4698
52.4672
52.4647
52.4622
52.4597
52.4571
52.4546
52.4521
52.4496
52.4471
52.4446
52.442
52.4395
52.437
52.4345
52.432
52.4294
52.4269
52.4244
52.4219
52.4194
52.4169
52.4144
52.4118
52.4093
52.4068
52.4043
52.4018
52.3993
52.3968
52.3943
52.3917
52.3892
52.3867
52.3842
52.3817
52.3792
52.3767
52.3742
52.3717
52.3692
52.3667
52.3642
52.3616
52.3591
52.3566
52.3541
52.3516
52.3491
52.3466
52.3441
52.3416
52.3391
52.3366
52.3341
52.3316
52.3291
52.3266
52.3241
52.3216
52.3191
52.3166
52.3141
52.3116
52.3091
52.3066
52.3041
52.3016
52.2991
52.2966
52.2941
52.2916
52.2891
52.2866
52.2841
52.2816
52.2791
52.2766
52.2742
52.2717
52.2692
52.2667
52.2642
52.2617
52.2592
52.2567
52.2542
52.2517
52.2492
52.2467
52.2443
52.2418
52.2393
52.2368
52.2343
52.2318
52.2293
52.2268
52.2244
52.2219
52.2194
52.2169
52.2144
52.2119
52.2094
52.207
52.2045
52.202
52.1995
52.197
52.1945
52.1921
52.1896
52.1871
52.1846
52.1821
52.1797
52.1772
52.1747
52.1722
52.1697
52.1673
52.1648
52.1623
52.1598
52.1574
52.1549
52.1524
52.1499
52.1475
52.145
52.1425
52.14
52.1376
52.1351
52.1326
52.1301
52.1277
52.1252
52.1227
52.1203
52.1178
52.1153
52.1128
52.1104
52.1079
52.1054
52.103
52.1005
52.098
52.0956
52.0931
52.0906
52.0882
52.0857
52.0832
52.0808
52.0783
52.0758
52.0734
52.0709
52.0684
52.066
52.0635
52.0611
52.0586
52.0561
52.0537
52.0512
52.0487
52.0463
52.0438
52.0414
52.0389
52.0364
52.034
52.0315
52.0291
52.0266
52.0242
52.0217
52.0192
52.0168
52.0143
52.0119
52.0094
52.007
52.0045
52.0021
51.9996
51.9972
51.9947
51.9922
51.9898
51.9873
51.9849
51.9824
51.98
51.9775
51.9751
51.9726
51.9702
51.9677
51.9653
51.9628
51.9604
51.9579
51.9555
51.9531
51.9506
51.9482
51.9457
51.9433
51.9408
51.9384
51.9359
51.9335
51.9311
51.9286
51.9262
51.9237
51.9213
51.9188
51.9164
51.914
51.9115
51.9091
51.9066
51.9042
51.9018
51.8993
51.8969
51.8944
51.892
51.8896
51.8871
51.8847
51.8823
51.8798
51.8774
51.875
51.8725
51.8701
51.8676
51.8652
51.8628
51.8603
51.8579
51.8555
51.853
51.8506
51.8482
51.8458
51.8433
51.8409
51.8385
51.836
51.8336
51.8312
51.8287
51.8263
51.8239
51.8215
51.819
51.8166
51.8142
51.8118
51.8093
51.8069
51.8045
51.8021
51.7996
51.7972
51.7948
51.7924
51.7899
51.7875
51.7851
51.7827
51.7803
51.7778
51.7754
51.773
51.7706
51.7682
51.7657
51.7633
51.7609
51.7585
51.7561
51.7536
51.7512
51.7488
51.7464
51.744
51.7416
51.7391
51.7367
51.7343
51.7319
51.7295
51.7271
51.7247
51.7223
51.7198
51.7174
51.715
51.7126
51.7102
51.7078
51.7054
51.703
51.7006
51.6981
51.6957
51.6933
51.6909
51.6885
51.6861
51.6837
51.6813
51.6789
51.6765
51.6741
51.6717
51.6693
51.6669
51.6645
51.6621
51.6596
51.6572
51.6548
51.6524
51.65
51.6476
51.6452
51.6428
51.6404
51.638
51.6356
51.6332
51.6308
51.6284
51.626
51.6236
51.6212
51.6188
51.6164
51.6141
51.6117
51.6093
51.6069
51.6045
51.6021
51.5997
51.5973
51.5949
51.5925
51.5901
51.5877
51.5853
51.5829
51.5805
51.5781
51.5758
51.5734
51.571
51.5686
51.5662
51.5638
51.5614
51.559
51.5566
51.5543
51.5519
51.5495
51.5471
51.5447
51.5423
51.5399
51.5375
51.5352
51.5328
51.5304
51.528
51.5256
51.5232
51.5209
51.5185
51.5161
51.5137
51.5113
51.509
51.5066
51.5042
51.5018
51.4994
51.4971
51.4947
51.4923
51.4899
51.4875
51.4852
51.4828
51.4804
51.478
51.4757
51.4733
51.4709
51.4685
51.4662
51.4638
51.4614
51.459
51.4567
51.4543
51.4519
51.4495
51.4472
51.4448
51.4424
51.4401
51.4377
51.4353
51.4329
51.4306
51.4282
51.4258
51.4235
51.4211
51.4187
51.4164
51.414
51.4116
51.4093
51.4069
51.4045
51.4022
51.3998
51.3974
51.3951
51.3927
51.3904
51.388
51.3856
51.3833
51.3809
51.3785
51.3762
51.3738
51.3715
51.3691
51.3667
51.3644
51.362
51.3597
51.3573
51.3549
51.3526
51.3502
51.3479
51.3455
51.3432
51.3408
51.3385
51.3361
51.3337
51.3314
51.329
51.3267
51.3243
51.322
51.3196
51.3173
51.3149
51.3126
51.3102
51.3079
51.3055
51.3032
51.3008
51.2985
51.2961
51.2938
51.2914
51.2891
51.2867
51.2844
51.282
51.2797
51.2773
51.275
51.2726
51.2703
51.268
51.2656
51.2633
51.2609
51.2586
51.2562
51.2539
51.2515
51.2492
51.2469
51.2445
51.2422
51.2398
51.2375
51.2352
51.2328
51.2305
51.2281
51.2258
51.2235
51.2211
51.2188
51.2165
51.2141
51.2118
51.2094
51.2071
51.2048
51.2024
51.2001
51.1978
51.1954
51.1931
51.1908
51.1884
51.1861
51.1838
51.1814
51.1791
51.1768
51.1744
51.1721
51.1698
51.1675
51.1651
51.1628
51.1605
51.1581
51.1558
51.1535
51.1512
51.1488
51.1465
51.1442
51.1418
51.1395
51.1372
51.1349
51.1325
51.1302
51.1279
51.1256
51.1233
51.1209
51.1186
51.1163
51.114
51.1116
51.1093
51.107
51.1047
51.1024
51.1
51.0977
51.0954
51.0931
51.0908
51.0884
51.0861
51.0838
51.0815
51.0792
51.0769
51.0745
51.0722
51.0699
51.0676
51.0653
51.063
51.0607
51.0583
51.056
51.0537
51.0514
51.0491
51.0468
51.0445
51.0422
51.0399
51.0375
51.0352
51.0329
51.0306
51.0283
51.026
51.0237
51.0214
51.0191
51.0168
51.0145
51.0122
51.0098
51.0075
51.0052
51.0029
51.0006
50.9983
50.996
50.9937
50.9914
50.9891
50.9868
50.9845
50.9822
50.9799
50.9776
50.9753
50.973
50.9707
50.9684
50.9661
50.9638
50.9615
50.9592
50.9569
50.9546
50.9523
50.95
50.9477
50.9454
50.9431
50.9408
50.9385
50.9362
50.9339
50.9317
50.9294
50.9271
50.9248
50.9225
50.9202
50.9179
50.9156
50.9133
50.911
50.9087
50.9064
50.9042
50.9019
50.8996
50.8973
50.895
50.8927
50.8904
50.8881
50.8858
50.8836
50.8813
50.879
50.8767
50.8744
50.8721
50.8698
50.8676
50.8653
50.863
50.8607
50.8584
50.8561
50.8539
50.8516
50.8493
50.847
50.8447
50.8425
50.8402
50.8379
50.8356
50.8333
50.8311
50.8288
50.8265
50.8242
50.8219
50.8197
50.8174
50.8151
50.8128
50.8106
50.8083
50.806
50.8037
50.8015
50.7992
50.7969
50.7946
50.7924
50.7901
50.7878
50.7856
50.7833
50.781
50.7787
50.7765
50.7742
50.7719
50.7697
50.7674
50.7651
50.7629
50.7606
50.7583
50.7561
50.7538
50.7515
50.7493
50.747
50.7447
50.7425
50.7402
50.7379
50.7357
50.7334
50.7311
50.7289
50.7266
50.7244
50.7221
50.7198
50.7176
50.7153
50.713
50.7108
50.7085
50.7063
50.704
50.7017
50.6995
50.6972
50.695
50.6927
50.6905
50.6882
50.6859
50.6837
50.6814
50.6792
50.6769
50.6747
50.6724
50.6702
50.6679
50.6656
50.6634
50.6611
50.6589
50.6566
50.6544
50.6521
50.6499
50.6476
50.6454
50.6431
50.6409
50.6386
50.6364
50.6341
50.6319
50.6296
50.6274
50.6251
50.6229
50.6207
50.6184
50.6162
50.6139
50.6117
50.6094
50.6072
50.6049
50.6027
50.6004
50.5982
50.596
50.5937
50.5915
50.5892
50.587
50.5848
50.5825
50.5803
50.578
50.5758
50.5736
50.5713
50.5691
50.5668
50.5646
50.5624
50.5601
50.5579
50.5557
50.5534
50.5512
50.5489
50.5467
50.5445
50.5422
50.54
50.5378
50.5355
50.5333
50.5311
50.5288
50.5266
50.5244
50.5221
50.5199
50.5177
50.5155
50.5132
50.511
50.5088
50.5065
50.5043
50.5021
50.4999
50.4976
50.4954
50.4932
50.4909
50.4887
50.4865
50.4843
50.482
50.4798
50.4776
50.4754
50.4731
50.4709
50.4687
50.4665
50.4643
50.462
50.4598
50.4576
50.4554
50.4531
50.4509
50.4487
50.4465
50.4443
50.442
50.4398
50.4376
50.4354
50.4332
50.431
50.4287
50.4265
50.4243
50.4221
50.4199
50.4177
50.4154
50.4132
50.411
50.4088
50.4066
50.4044
50.4022
50.4
50.3977
50.3955
50.3933
50.3911
50.3889
50.3867
50.3845
50.3823
50.3801
50.3778
50.3756
50.3734
50.3712
50.369
50.3668
50.3646
50.3624
50.3602
50.358
50.3558
50.3536
50.3514
50.3492
50.347
50.3448
50.3426
50.3403
50.3381
50.3359
50.3337
50.3315
50.3293
50.3271
50.3249
50.3227
50.3205
50.3183
50.3161
50.3139
50.3117
50.3095
50.3073
50.3051
50.3029
50.3007
50.2986
50.2964
50.2942
50.292
50.2898
50.2876
50.2854
50.2832
50.281
50.2788
50.2766
50.2744
50.2722
50.27
50.2678
50.2656
50.2635
50.2613
50.2591
50.2569
50.2547
50.2525
50.2503
50.2481
50.2459
50.2437
50.2416
50.2394
50.2372
50.235
50.2328
50.2306
50.2284
50.2263
50.2241
50.2219
50.2197
50.2175
50.2153
50.2131
50.211
50.2088
50.2066
50.2044
50.2022
50.2001
50.1979
50.1957
50.1935
50.1913
50.1892
50.187
50.1848
50.1826
50.1804
50.1783
50.1761
50.1739
50.1717
50.1696
50.1674
50.1652
50.163
50.1609
50.1587
50.1565
50.1543
50.1522
50.15
50.1478
50.1456
50.1435
50.1413
50.1391
50.1369
50.1348
50.1326
50.1304
50.1283
50.1261
50.1239
50.1218
50.1196
50.1174
50.1153
50.1131
50.1109
50.1087
50.1066
50.1044
50.1022
50.1001
50.0979
50.0958
50.0936
50.0914
50.0893
50.0871
50.0849
50.0828
50.0806
50.0784
50.0763
50.0741
50.072
50.0698
50.0676
50.0655
50.0633
50.0612
50.059
50.0568
50.0547
50.0525
50.0504
50.0482
50.0461
50.0439
50.0417
50.0396
50.0374
50.0353
50.0331
50.031
50.0288
50.0267
50.0245
50.0223
50.0202
50.018
50.0159
50.0137
50.0116
50.0094
50.0073
50.0051
50.003
50.0008
49.9987
49.9965
49.9944
49.9922
49.9901
49.9879
49.9858
49.9836
49.9815
49.9794
49.9772
49.9751
49.9729
49.9708
49.9686
49.9665
49.9643
49.9622
49.96
49.9579
49.9558
49.9536
49.9515
49.9493
49.9472
49.9451
49.9429
49.9408
49.9386
49.9365
49.9344
49.9322
49.9301
49.9279
49.9258
49.9237
49.9215
49.9194
49.9172
49.9151
49.913
49.9108
49.9087
49.9066
49.9044
49.9023
49.9002
49.898
49.8959
49.8938
49.8916
49.8895
49.8874
49.8852
49.8831
49.881
49.8788
49.8767
49.8746
49.8725
49.8703
49.8682
49.8661
49.8639
49.8618
49.8597
49.8576
49.8554
49.8533
49.8512
49.849
49.8469
49.8448
49.8427
49.8405
49.8384
49.8363
49.8342
49.8321
49.8299
49.8278
49.8257
49.8236
49.8214
49.8193
49.8172
49.8151
49.813
49.8108
49.8087
49.8066
49.8045
49.8024
49.8002