# vtk DataFile Version 2.0
vtk output
ASCII
DATASET STRUCTURED_GRID
DIMENSIONS 50 10 30
POINTS 15000 float
0 0 0
1 0 0
2 0 0
3 0 0
4 0 0
5 0 0
6 0 0
7 0 0
8 0 0
9 0 0
10 0 0
11 0 0
12 0 0
13 0 0
14 0 0
15 0 0
16 0 0
17 0 0
18 0 0
19 0 0
20 0 0
21 0 0
22 0 0
23 0 0
24 0 0
25 0 0
26 0 0
27 0 0
28 0 0
29 0 0
30 0 0
31 0 0
32 0 0
33 0 0
34 0 0
35 0 0
36 0 0
37 0 0
38 0 0
39 0 0
40 0 0
41 0 0
42 0 0
43 0 0
44 0 0
45 0 0
46 0 0
47 0 0
48 0 0
49 0 0
0 1 0
1 1 0
2 1 0
3 1 0
4 1 0
5 1 0
6 1 0
7 1 0
8 1 0
9 1 0
10 1 0
11 1 0
12 1 0
13 1 0
14 1 0
15 1 0
16 1 0
17 1 0
18 1 0
19 1 0
20 1 0
21 1 0
22 1 0
23 1 0
24 1 0
25 1 0
26 1 0
27 1 0
28 1 0
29 1 0
30 1 0
31 1 0
32 1 0
33 1 0
34 1 0
35 1 0
36 1 0
37 1 0
38 1 0
39 1 0
40 1 0
41 1 0
42 1 0
43 1 0
44 1 0
45 1 0
46 1 0
47 1 0
48 1 0
49 1 0
0 2 0
1 2 0
2 2 0
3 2 0
4 2 0
5 2 0
6 2 0
7 2 0
8 2 0
9 2 0
10 2 0
11 2 0
12 2 0
13 2 0
14 2 0
15 2 0
16 2 0
17 2 0
18 2 0
19 2 0
20 2 0
21 2 0
22 2 0
23 2 0
24 2 0
25 2 0
26 2 0
27 2 0
28 2 0
29 2 0
30 2 0
31 2 0
32 2 0
33 2 0
34 2 0
35 2 0
36 2 0
37 2 0
38 2 0
39 2 0
40 2 0
41 2 0
42 2 0
43 2 0
44 2 0
45 2 0
46 2 0
47 2 0
48 2 0
49 2 0
0 3 0
1 3 0
2 3 0
3 3 0
4 3 0
5 3 0
6 3 0
7 3 0
8 3 0
9 3 0
10 3 0
11 3 0
12 3 0
13 3 0
14 3 0
15 3 0
16 3 0
17 3 0
18 3 0
19 3 0
20 3 0
21 3 0
22 3 0
23 3 0
24 3 0
25 3 0
26 3 0
27 3 0
28 3 0
29 3 0
30 3 0
31 3 0
32 3 0
33 3 0
34 3 0
35 3 0
36 3 0
37 3 0
38 3 0
39 3 0
40 3 0
41 3 0
42 3 0
43 3 0
44 3 0
45 3 0
46 3 0
47 3 0
48 3 0
49 3 0
0 4 0
1 4 0
2 4 0
3 4 0
4 4 0
5 4 0
6 4 0
7 4 0
8 4 0
9 4 0
10 4 0
11 4 0
12 4 0
13 4 0
14 4 0
15 4 0
16 4 0
17 4 0
18 4 0
19 4 0
20 4 0
21 4 0
22 4 0
23 4 0
24 4 0
25 4 0
26 4 0
27 4 0
28 4 0
29 4 0
30 4 0
31 4 0
32 4 0
33 4 0
34 4 0
35 4 0
36 4 0
37 4 0
38 4 0
39 4 0
40 4 0
41 4 0
42 4 0
43 4 0
44 4 0
45 4 0
46 4 0
47 4 0
48 4 0
49 4 0
0 5 0
1 5 0
2 5 0
3 5 0
4 5 0
5 5 0
6 5 0
7 5 0
8 5 0
9 5 0
10 5 0
11 5 0
12 5 0
13 5 0
14 5 0
15 5 0
16 5 0
17 5 0
18 5 0
19 5 0
20 5 0
21 5 0
22 5 0
23 5 0
24 5 0
25 5 0
26 5 0
27 5 0
28 5 0
29 5 0
30 5 0
31 5 0
32 5 0
33 5 0
34 5 0
35 5 0
36 5 0
37 5 0
38 5 0
39 5 0
40 5 0
41 5 0
42 5 0
43 5 0
44 5 0
45 5 0
46 5 0
47 5 0
48 5 0
49 5 0
0 6 0
1 6 0
2 6 0
3 6 0
4 6 0
5 6 0
6 6 0
7 6 0
8 6 0
9 6 0
10 6 0
11 6 0
12 6 0
13 6 0
14 6 0
15 6 0
16 6 0
17 6 0
18 6 0
19 6 0
20 6 0
21 6 0
22 6 0
23 6 0
24 6 0
25 6 0
26 6 0
27 6 0
28 6 0
29 6 0
30 6 0
31 6 0
32 6 0
33 6 0
34 6 0
35 6 0
36 6 0
37 6 0
38 6 0
39 6 0
40 6 0
41 6 0
42 6 0
43 6 0
44 6 0
45 6 0
46 6 0
47 6 0
48 6 0
49 6 0
0 7 0
1 7 0
2 7 0
3 7 0
4 7 0
5 7 0
6 7 0
7 7 0
8 7 0
9 7 0
10 7 0
11 7 0
12 7 0
13 7 0
14 7 0
15 7 0
16 7 0
17 7 0
18 7 0
19 7 0
20 7 0
21 7 0
22 7 0
23 7 0
24 7 0
25 7 0
26 7 0
27 7 0
28 7 0
29 7 0
30 7 0
31 7 0
32 7 0
33 7 0
34 7 0
35 7 0
36 7 0
37 7 0
38 7 0
39 7 0
40 7 0
41 7 0
42 7 0
43 7 0
44 7 0
45 7 0
46 7 0
47 7 0
48 7 0
49 7 0
0 8 0
1 8 0
2 8 0
3 8 0
4 8 0
5 8 0
6 8 0
7 8 0
8 8 0
9 8 0
10 8 0
11 8 0
12 8 0
13 8 0
14 8 0
15 8 0
16 8 0
17 8 0
18 8 0
19 8 0
20 8 0
21 8 0
22 8 0
23 8 0
24 8 0
25 8 0
26 8 0
27 8 0
28 8 0
29 8 0
30 8 0
31 8 0
32 8 0
33 8 0
34 8 0
35 8 0
36 8 0
37 8 0
38 8 0
39 8 0
40 8 0
41 8 0
42 8 0
43 8 0
44 8 0
45 8 0
46 8 0
47 8 0
48 8 0
49 8 0
0 9 0
1 9 0
2 9 0
3 9 0
4 9 0
5 9 0
6 9 0
7 9 0
8 9 0
9 9 0
10 9 0
11 9 0
12 9 0
13 9 0
14 9 0
15 9 0
16 9 0
17 9 0
18 9 0
19 9 0
20 9 0
21 9 0
22 9 0
23 9 0
24 9 0
25 9 0
26 9 0
27 9 0
28 9 0
29 9 0
30 9 0
31 9 0
32 9 0
33 9 0
34 9 0
35 9 0
36 9 0
37 9 0
38 9 0
39 9 0
40 9 0
41 9 0
42 9 0
43 9 0
44 9 0
45 9 0
46 9 0
47 9 0
48 9 0
49 9 0
0 0 1
1 0 1
2 0 1
3 0 1
4 0 1
5 0 1
6 0 1
7 0 1
8 0 1
9 0 1
10 0 1
11 0 1
12 0 1
13 0 1
14 0 1
15 0 1
16 0 1
17 0 1
18 0 1
19 0 1
20 0 1
21 0 1
22 0 1
23 0 1
24 0 1
25 0 1
26 0 1
27 0 1
28 0 1
29 0 1
30 0 1
31 0 1
32 0 1
33 0 1
34 0 1
35 0 1
36 0 1
37 0 1
38 0 1
39 0 1
40 0 1
41 0 1
42 0 1
43 0 1
44 0 1
45 0 1
46 0 1
47 0 1
48 0 1
49 0 1
0 1 1
1 1 1
2 1 1
3 1 1
4 1 1
5 1 1
6 1 1
7 1 1
8 1 1
9 1 1
10 1 1
11 1 1
12 1 1
13 1 1
14 1 1
15 1 1
16 1 1
17 1 1
18 1 1
19 1 1
20 1 1
21 1 1
22 1 1
23 1 1
24 1 1
25 1 1
26 1 1
27 1 1
28 1 1
29 1 1
30 1 1
31 1 1
32 1 1
33 1 1
34 1 1
35 1 1
36 1 1
37 1 1
38 1 1
39 1 1
40 1 1
41 1 1
42 1 1
43 1 1
44 1 1
45 1 1
46 1 1
47 1 1
48 1 1
49 1 1
0 2 1
1 2 1
2 2 1
3 2 1
4 2 1
5 2 1
6 2 1
7 2 1
8 2 1
9 2 1
10 2 1
11 2 1
12 2 1
13 2 1
14 2 1
15 2 1
16 2 1
17 2 1
18 2 1
19 2 1
20 2 1
21 2 1
22 2 1
23 2 1
24 2 1
25 2 1
26 2 1
27 2 1
28 2 1
29 2 1
30 2 1
31 2 1
32 2 1
33 2 1
34 2 1
35 2 1
36 2 1
37 2 1
38 2 1
39 2 1
40 2 1
41 2 1
42 2 1
43 2 1
44 2 1
45 2 1
46 2 1
47 2 1
48 2 1
49 2 1
0 3 1
1 3 1
2 3 1
3 3 1
4 3 1
5 3 1
6 3 1
7 3 1
8 3 1
9 3 1
10 3 1
11 3 1
12 3 1
13 3 1
14 3 1
15 3 1
16 3 1
17 3 1
18 3 1
19 3 1
20 3 1
21 3 1
22 3 1
23 3 1
24 3 1
25 3 1
26 3 1
27 3 1
28 3 1
29 3 1
30 3 1
31 3 1
32 3 1
33 3 1
34 3 1
35 3 1
36 3 1
37 3 1
38 3 1
39 3 1
40 3 1
41 3 1
42 3 1
43 3 1
44 3 1
45 3 1
46 3 1
47 3 1
48 3 1
49 3 1
0 4 1
1 4 1
2 4 1
3 4 1
4 4 1
5 4 1
6 4 1
7 4 1
8 4 1
9 4 1
10 4 1
11 4 1
12 4 1
13 4 1
14 4 1
15 4 1
16 4 1
17 4 1
18 4 1
19 4 1
20 4 1
21 4 1
22 4 1
23 4 1
24 4 1
25 4 1
26 4 1
27 4 1
28 4 1
29 4 1
30 4 1
31 4 1
32 4 1
33 4 1
34 4 1
35 4 1
36 4 1
37 4 1
38 4 1
39 4 1
40 4 1
41 4 1
42 4 1
43 4 1
44 4 1
45 4 1
46 4 1
47 4 1
48 4 1
49 4 1
0 5 1
1 5 1
2 5 1
3 5 1
4 5 1
5 5 1
6 5 1
7 5 1
8 5 1
9 5 1
10 5 1
11 5 1
12 5 1
13 5 1
14 5 1
15 5 1
16 5 1
17 5 1
18 5 1
19 5 1
20 5 1
21 5 1
22 5 1
23 5 1
24 5 1
25 5 1
26 5 1
27 5 1
28 5 1
29 5 1
30 5 1
31 5 1
32 5 1
33 5 1
34 5 1
35 5 1
36 5 1
37 5 1
38 5 1
39 5 1
40 5 1
41 5 1
42 5 1
43 5 1
44 5 1
45 5 1
46 5 1
47 5 1
48 5 1
49 5 1
0 6 1
1 6 1
2 6 1
3 6 1
4 6 1
5 6 1
6 6 1
7 6 1
8 6 1
9 6 1
10 6 1
11 6 1
12 6 1
13 6 1
14 6 1
15 6 1
16 6 1
17 6 1
18 6 1
19 6 1
20 6 1
21 6 1
22 6 1
23 6 1
24 6 1
25 6 1
26 6 1
27 6 1
28 6 1
29 6 1
30 6 1
31 6 1
32 6 1
33 6 1
34 6 1
35 6 1
36 6 1
37 6 1
38 6 1
39 6 1
40 6 1
41 6 1
42 6 1
43 6 1
44 6 1
45 6 1
46 6 1
47 6 1
48 6 1
49 6 1
0 7 1
1 7 1
2 7 1
3 7 1
4 7 1
5 7 1
6 7 1
7 7 1
8 7 1
9 7 1
10 7 1
11 7 1
12 7 1
13 7 1
14 7 1
15 7 1
16 7 1
17 7 1
18 7 1
19 7 1
20 7 1
21 7 1
22 7 1
23 7 1
24 7 1
25 7 1
26 7 1
27 7 1
28 7 1
29 7 1
30 7 1
31 7 1
32 7 1
33 7 1
34 7 1
35 7 1
36 7 1
37 7 1
38 7 1
39 7 1
40 7 1
41 7 1
42 7 1
43 7 1
44 7 1
45 7 1
46 7 1
47 7 1
48 7 1
49 7 1
0 8 1
1 8 1
2 8 1
3 8 1
4 8 1
5 8 1
6 8 1
7 8 1
8 8 1
9 8 1
10 8 1
11 8 1
12 8 1
13 8 1
14 8 1
15 8 1
16 8 1
17 8 1
18 8 1
19 8 1
20 8 1
21 8 1
22 8 1
23 8 1
24 8 1
25 8 1
26 8 1
27 8 1
28 8 1
29 8 1
30 8 1
31 8 1
32 8 1
33 8 1
34 8 1
35 8 1
36 8 1
37 8 1
38 8 1
39 8 1
40 8 1
41 8 1
42 8 1
43 8 1
44 8 1
45 8 1
46 8 1
47 8 1
48 8 1
49 8 1
0 9 1
1 9 1
2 9 1
3 9 1
4 9 1
5 9 1
6 9 1
7 9 1
8 9 1
9 9 1
10 9 1
11 9 1
12 9 1
13 9 1
14 9 1
15 9 1
16 9 1
17 9 1
18 9 1
19 9 1
20 9 1
21 9 1
22 9 1
23 9 1
24 9 1
25 9 1
26 9 1
27 9 1
28 9 1
29 9 1
30 9 1
31 9 1
32 9 1
33 9 1
34 9 1
35 9 1
36 9 1
37 9 1
38 9 1
39 9 1
40 9 1
41 9 1
42 9 1
43 9 1
44 9 1
45 9 1
46 9 1
47 9 1
48 9 1
49 9 1
0 0 2
1 0 2
2 0 2
3 0 2
4 0 2
5 0 2
6 0 2
7 0 2
8 0 2
9 0 2
10 0 2
11 0 2
12 0 2
13 0 2
14 0 2
15 0 2
16 0 2
17 0 2
18 0 2
19 0 2
20 0 2
21 0 2
22 0 2
23 0 2
24 0 2
25 0 2
26 0 2
27 0 2
28 0 2
29 0 2
30 0 2
31 0 2
32 0 2
33 0 2
34 0 2
35 0 2
36 0 2
37 0 2
38 0 2
39 0 2
40 0 2
41 0 2
42 0 2
43 0 2
44 0 2
45 0 2
46 0 2
47 0 2
48 0 2
49 0 2
0 1 2
1 1 2
2 1 2
3 1 2
4 1 2
5 1 2
6 1 2
7 1 2
8 1 2
9 1 2
10 1 2
11 1 2
12 1 2
13 1 2
14 1 2
15 1 2
16 1 2
17 1 2
18 1 2
19 1 2
20 1 2
21 1 2
22 1 2
23 1 2
24 1 2
25 1 2
26 1 2
27 1 2
28 1 2
29 1 2
30 1 2
31 1 2
32 1 2
33 1 2
34 1 2
35 1 2
36 1 2
37 1 2
38 1 2
39 1 2
40 1 2
41 1 2
42 1 2
43 1 2
44 1 2
45 1 2
46 1 2
47 1 2
48 1 2
49 1 2
0 2 2
1 2 2
2 2 2
3 2 2
4 2 2
5 2 2
6 2 2
7 2 2
8 2 2
9 2 2
10 2 2
11 2 2
12 2 2
13 2 2
14 2 2
15 2 2
16 2 2
17 2 2
18 2 2
19 2 2
20 2 2
21 2 2
22 2 2
23 2 2
24 2 2
25 2 2
26 2 2
27 2 2
28 2 2
29 2 2
30 2 2
31 2 2
32 2 2
33 2 2
34 2 2
35 2 2
36 2 2
37 2 2
38 2 2
39 2 2
40 2 2
41 2 2
42 2 2
43 2 2
44 2 2
45 2 2
46 2 2
47 2 2
48 2 2
49 2 2
0 3 2
1 3 2
2 3 2
3 3 2
4 3 2
5 3 2
6 3 2
7 3 2
8 3 2
9 3 2
10 3 2
11 3 2
12 3 2
13 3 2
14 3 2
15 3 2
16 3 2
17 3 2
18 3 2
19 3 2
20 3 2
21 3 2
22 3 2
23 3 2
24 3 2
25 3 2
26 3 2
27 3 2
28 3 2
29 3 2
30 3 2
31 3 2
32 3 2
33 3 2
34 3 2
35 3 2
36 3 2
37 3 2
38 3 2
39 3 2
40 3 2
41 3 2
42 3 2
43 3 2
44 3 2
45 3 2
46 3 2
47 3 2
48 3 2
49 3 2
0 4 2
1 4 2
2 4 2
3 4 2
4 4 2
5 4 2
6 4 2
7 4 2
8 4 2
9 4 2
10 4 2
11 4 2
12 4 2
13 4 2
14 4 2
15 4 2
16 4 2
17 4 2
18 4 2
19 4 2
20 4 2
21 4 2
22 4 2
23 4 2
24 4 2
25 4 2
26 4 2
27 4 2
28 4 2
29 4 2
30 4 2
31 4 2
32 4 2
33 4 2
34 4 2
35 4 2
36 4 2
37 4 2
38 4 2
39 4 2
40 4 2
41 4 2
42 4 2
43 4 2
44 4 2
45 4 2
46 4 2
47 4 2
48 4 2
49 4 2
0 5 2
1 5 2
2 5 2
3 5 2
4 5 2
5 5 2
6 5 2
7 5 2
8 5 2
9 5 2
10 5 2
11 5 2
12 5 2
13 5 2
14 5 2
15 5 2
16 5 2
17 5 2
18 5 2
19 5 2
20 5 2
21 5 2
22 5 2
23 5 2
24 5 2
25 5 2
26 5 2
27 5 2
28 5 2
29 5 2
30 5 2
31 5 2
32 5 2
33 5 2
34 5 2
35 5 2
36 5 2
37 5 2
38 5 2
39 5 2
40 5 2
41 5 2
42 5 2
43 5 2
44 5 2
45 5 2
46 5 2
47 5 2
48 5 2
49 5 2
0 6 2
1 6 2
2 6 2
3 6 2
4 6 2
5 6 2
6 6 2
7 6 2
8 6 2
9 6 2
10 6 2
11 6 2
12 6 2
13 6 2
14 6 2
15 6 2
16 6 2
17 6 2
18 6 2
19 6 2
20 6 2
21 6 2
22 6 2
23 6 2
24 6 2
25 6 2
26 6 2
27 6 2
28 6 2
29 6 2
30 6 2
31 6 2
32 6 2
33 6 2
34 6 2
35 6 2
36 6 2
37 6 2
38 6 2
39 6 2
40 6 2
41 6 2
42 6 2
43 6 2
44 6 2
45 6 2
46 6 2
47 6 2
48 6 2
49 6 2
0 7 2
1 7 2
2 7 2
3 7 2
4 7 2
5 7 2
6 7 2
7 7 2
8 7 2
9 7 2
10 7 2
11 7 2
12 7 2
13 7 2
14 7 2
15 7 2
16 7 2
17 7 2
18 7 2
19 7 2
20 7 2
21 7 2
22 7 2
23 7 2
24 7 2
25 7 2
26 7 2
27 7 2
28 7 2
29 7 2
30 7 2
31 7 2
32 7 2
33 7 2
34 7 2
35 7 2
36 7 2
37 7 2
38 7 2
39 7 2
40 7 2
41 7 2
42 7 2
43 7 2
44 7 2
45 7 2
46 7 2
47 7 2
48 7 2
49 7 2
0 8 2
1 8 2
2 8 2
3 8 2
4 8 2
5 8 2
6 8 2
7 8 2
8 8 2
9 8 2
10 8 2
11 8 2
12 8 2
13 8 2
14 8 2
15 8 2
16 8 2
17 8 2
18 8 2
19 8 2
20 8 2
21 8 2
22 8 2
23 8 2
24 8 2
25 8 2
26 8 2
27 8 2
28 8 2
29 8 2
30 8 2
31 8 2
32 8 2
33 8 2
34 8 2
35 8 2
36 8 2
37 8 2
38 8 2
39 8 2
40 8 2
41 8 2
42 8 2
43 8 2
44 8 2
45 8 2
46 8 2
47 8 2
48 8 2
49 8 2
0 9 2
1 9 2
2 9 2
3 9 2
4 9 2
[...]
POINT_DATA 15000
SCALARS sol94 float
LOOKUP_TABLE default
54.4546
54.4516
54.4485
54.4455
54.4424
54.4394
54.4363
54.4333
54.4302
54.4272
54.4241
54.4211
54.4181
54.415
54.412
54.4089
54.4059
54.4028
54.3998
54.3968
54.3937
54.3907
54.3876
54.3846
54.3816
54.3785
54.3755
54.3724
54.3694
54.3664
54.3633
54.3603
54.3573
54.3542
54.3512
54.3481
54.3451
54.3421
54.339
54.336
54.333
54.3299
54.3269
54.3239
54.3208
54.3178
54.3148
54.3118
54.3087
54.3057
54.3027
54.2996
54.2966
54.2936
54.2906
54.2875
54.2845
54.2815
54.2785
54.2754
54.2724
54.2694
54.2664
54.2633
54.2603
54.2573
54.2543
54.2512
54.2482
54.2452
54.2422
54.2392
54.2361
54.2331
54.2301
54.2271
54.2241
54.221
54.218
54.215
54.212
54.209
54.206
54.2029
54.1999
54.1969
54.1939
54.1909
54.1879
54.1849
54.1818
54.1788
54.1758
54.1728
54.1698
54.1668
54.1638
54.1608
54.1578
54.1547
54.1517
54.1487
54.1457
54.1427
54.1397
54.1367
54.1337
54.1307
54.1277
54.1247
54.1217
54.1187
54.1157
54.1127
54.1097
54.1066
54.1036
54.1006
54.0976
54.0946
54.0916
54.0886
54.0856
54.0826
54.0796
54.0766
54.0736
54.0706
54.0676
54.0647
54.0617
54.0587
54.0557
54.0527
54.0497
54.0467
54.0437
54.0407
54.0377
54.0347
54.0317
54.0287
54.0257
54.0227
54.0197
54.0168
54.0138
54.0108
54.0078
54.0048
54.0018
53.9988
53.9958
53.9928
53.9899
53.9869
53.9839
53.9809
53.9779
53.9749
53.9719
53.969
53.966
53.963
53.96
53.957
53.954
53.9511
53.9481
53.9451
53.9421
53.9391
53.9362
53.9332
53.9302
53.9272
53.9242
53.9213
53.9183
53.9153
53.9123
53.9094
53.9064
53.9034
53.9004
53.8974
53.8945
53.8915
53.8885
53.8856
53.8826
53.8796
53.8766
53.8737
53.8707
53.8677
53.8648
53.8618
53.8588
53.8558
53.8529
53.8499
53.8469
53.844
53.841
53.838
53.8351
53.8321
53.8291
53.8262
53.8232
53.8202
53.8173
53.8143
53.8114
53.8084
53.8054
53.8025
53.7995
53.7965
53.7936
53.7906
53.7877
53.7847
53.7817
53.7788
53.7758
53.7729
53.7699
53.767
53.764
53.761
53.7581
53.7551
53.7522
53.7492
53.7463
53.7433
53.7404
53.7374
53.7345
53.7315
53.7285
53.7256
53.7226
53.7197
53.7167
53.7138
53.7108
53.7079
53.7049
53.702
53.699
53.6961
53.6932
53.6902
53.6873
53.6843
53.6814
53.6784
53.6755
53.6725
53.6696
53.6666
53.6637
53.6608
53.6578
53.6549
53.6519
53.649
53.646
53.6431
53.6402
53.6372
53.6343
53.6314
53.6284
53.6255
53.6225
53.6196
53.6167
53.6137
53.6108
53.6079
53.6049
53.602
53.599
53.5961
53.5932
53.5902
53.5873
53.5844
53.5814
53.5785
53.5756
53.5727
53.5697
53.5668
53.5639
53.5609
53.558
53.5551
53.5521
53.5492
53.5463
53.5434
53.5404
53.5375
53.5346
53.5317
53.5287
53.5258
53.5229
53.52
53.517
53.5141
53.5112
53.5083
53.5054
53.5024
53.4995
53.4966
53.4937
53.4907
53.4878
53.4849
53.482
53.4791
53.4762
53.4732
53.4703
53.4674
53.4645
53.4616
53.4587
53.4557
53.4528
53.4499
53.447
53.4441
53.4412
53.4383
53.4353
53.4324
53.4295
53.4266
53.4237
53.4208
53.4179
53.415
53.4121
53.4091
53.4062
53.4033
53.4004
53.3975
53.3946
53.3917
53.3888
53.3859
53.383
53.3801
53.3772
53.3743
53.3714
53.3685
53.3656
53.3627
53.3598
53.3569
53.354
53.3511
53.3482
53.3453
53.3424
53.3395
53.3366
53.3337
53.3308
53.3279
53.325
53.3221
53.3192
53.3163
53.3134
53.3105
53.3076
53.3047
53.3018
53.2989
53.296
53.2931
53.2902
53.2873
53.2844
53.2815
53.2787
53.2758
53.2729
53.27
53.2671
53.2642
53.2613
53.2584
53.2555
53.2527
53.2498
53.2469
53.244
53.2411
53.2382
53.2353
53.2324
53.2296
53.2267
53.2238
53.2209
53.218
53.2151
53.2123
53.2094
53.2065
53.2036
53.2007
53.1979
53.195
53.1921
53.1892
53.1863
53.1835
53.1806
53.1777
53.1748
53.172
53.1691
53.1662
53.1633
53.1605
53.1576
53.1547
53.1518
53.149
53.1461
53.1432
53.1403
53.1375
53.1346
53.1317
53.1289
53.126
53.1231
53.1202
53.1174
53.1145
53.1116
53.1088
53.1059
53.103
53.1002
53.0973
53.0944
53.0916
53.0887
53.0858
53.083
53.0801
53.0772
53.0744
53.0715
53.0687
53.0658
53.0629
53.0601
53.0572
53.0543
53.0515
53.0486
53.0458
53.0429
53.0401
53.0372
53.0343
53.0315
53.0286
53.0258
53.0229
53.0201
53.0172
53.0143
53.0115
53.0086
53.0058
53.0029
53.0001
52.9972
52.9944
52.9915
52.9887
52.9858
52.983
52.9801
52.9773
52.9744
52.9716
52.9687
52.9659
52.963
52.9602
52.9573
52.9545
52.9516
52.9488
52.9459
52.9431
52.9402
52.9374
52.9346
52.9317
52.9289
52.926
52.9232
52.9203
52.9175
52.9147
52.9118
52.909
52.9061
52.9033
52.9005
52.8976
52.8948
52.8919
52.8891
52.8863
52.8834
52.8806
52.8777
52.8749
52.8721
52.8692
52.8664
52.8636
52.8607
52.8579
52.8551
52.8522
52.8494
52.8466
52.8437
52.8409
52.8381
52.8352
52.8324
52.8296
52.8268
52.8239
52.8211
52.8183
52.8154
52.8126
52.8098
52.807
52.8041
52.8013
52.7985
52.7957
52.7928
52.79
52.7872
52.7844
52.7815
52.7787
52.7759
52.7731
52.7702
52.7674
52.7646
52.7618
52.759
52.7561
52.7533
52.7505
52.7477
52.7449
52.7421
52.7392
52.7364
52.7336
52.7308
52.728
52.7252
52.7223
52.7195
52.7167
52.7139
52.7111
52.7083
52.7055
52.7026
52.6998
52.697
52.6942
52.6914
52.6886
52.6858
52.683
52.6802
52.6773
52.6745
52.6717
52.6689
52.6661
52.6633
52.6605
52.6577
52.6549
52.6521
52.6493
52.6465
52.6437
52.6409
52.6381
52.6353
52.6325
52.6297
52.6269
52.6241
52.6212
52.6184
52.6156
52.6128
52.61
52.6072
52.6044
52.6017
52.5989
52.5961
52.5933
52.5905
52.5877
52.5849
52.5821
52.5793
52.5765
52.5737
52.5709
52.5681
52.5653
52.5625
52.5597
52.5569
52.5541
52.5513
52.5486
52.5458
52.543
52.5402
52.5374
52.5346
52.5318
52.529
52.5262
52.5234
52.5207
52.5179
52.5151
52.5123
52.5095
52.5067
52.5039
52.5012
52.4984
52.4956
52.4928
52.49
52.4872
52.4845
52.4817
52.4789
52.4761
52.4733
52.4706
52.4678
52.465
52.4622
52.4594
52.4567
52.4539
52.4511
52.4483
52.4455
52.4428
52.44
52.4372
52.4344
52.4317
52.4289
52.4261
52.4233
52.4206
52.4178
52.415
52.4123
52.4095
52.4067
52.4039
52.4012
52.3984
52.3956
52.3929
52.3901
52.3873
52.3845
52.3818
52.379
52.3762
52.3735
52.3707
52.3679
52.3652
52.3624
52.3596
52.3569
52.3541
52.3514
52.3486
52.3458
52.3431
52.3403
52.3375
52.3348
52.332
52.3293
52.3265
52.3237
52.321
52.3182
52.3155
52.3127
52.3099
52.3072
52.3044
52.3017
52.2989
52.2962
52.2934
52.2906
52.2879
52.2851
52.2824
52.2796
52.2769
52.2741
52.2714
52.2686
52.2659
52.2631
52.2604
52.2576
52.2549
52.2521
52.2494
52.2466
52.2439
52.2411
52.2384
52.2356
52.2329
52.2301
52.2274
52.2246
52.2219
52.2191
52.2164
52.2136
52.2109
52.2082
52.2054
52.2027
52.1999
52.1972
52.1944
52.1917
52.189
52.1862
52.1835
52.1807
52.178
52.1753
52.1725
52.1698
52.167
52.1643
52.1616
52.1588
52.1561
52.1534
52.1506
52.1479
52.1451
52.1424
52.1397
52.1369
52.1342
52.1315
52.1287
52.126
52.1233
52.1205
52.1178
52.1151
52.1124
52.1096
52.1069
52.1042
52.1014
52.0987
52.096
52.0932
52.0905
52.0878
52.0851
52.0823
52.0796
52.0769
52.0742
52.0714
52.0687
52.066
52.0633
52.0605
52.0578
52.0551
52.0524
52.0496
52.0469
52.0442
52.0415
52.0388
52.036
52.0333
52.0306
52.0279
52.0252
52.0225
52.0197
52.017
52.0143
52.0116
52.0089
52.0061
52.0034
52.0007
51.998
51.9953
51.9926
51.9899
51.9871
51.9844
51.9817
51.979
51.9763
51.9736
51.9709
51.9682
51.9655
51.9627
51.96
51.9573
51.9546
51.9519
51.9492
51.9465
51.9438
51.9411
51.9384
51.9357
51.933
51.9303
51.9276
51.9248
51.9221
51.9194
51.9167
51.914
51.9113
51.9086
51.9059
51.9032
51.9005
51.8978
51.8951
51.8924
51.8897
51.887
51.8843
51.8816
51.8789
51.8762
51.8735
51.8708
51.8681
51.8654
51.8627
51.8601
51.8574
51.8547
51.852
51.8493
51.8466
51.8439
51.8412
51.8385
51.8358
51.8331
51.8304
51.8277
51.825
51.8224
51.8197
51.817
51.8143
51.8116
51.8089
51.8062
51.8035
51.8008
51.7982
51.7955
51.7928
51.7901
51.7874
51.7847
51.782
51.7794
51.7767
51.774
51.7713
51.7686
51.7659
51.7633
51.7606
51.7579
51.7552
51.7525
51.7499
51.7472
51.7445
51.7418
51.7391
51.7365
51.7338
51.7311
51.7284
51.7258
51.7231
51.7204
51.7177
51.7151
51.7124
51.7097
51.707
51.7044
51.7017
51.699
51.6963
51.6937
51.691
51.6883
51.6857
51.683
51.6803
51.6776
51.675
51.6723
51.6696
51.667
51.6643
51.6616
51.659
51.6563
51.6536
51.651
51.6483
51.6456
51.643
51.6403
51.6376
51.635
51.6323
51.6296
51.627
51.6243
51.6217
51.619
51.6163
51.6137
51.611
51.6084
51.6057
51.603
51.6004
51.5977
51.5951
51.5924
51.5897
51.5871
51.5844
51.5818
51.5791
51.5765
51.5738
51.5712
51.5685
51.5658
51.5632
51.5605
51.5579
51.5552
51.5526
51.5499
51.5473
51.5446
51.542
51.5393
51.5367
51.534
51.5314
51.5287
51.5261
51.5234
51.5208
51.5181
51.5155
51.5128
51.5102
51.5076
51.5049
51.5023
51.4996
51.497
51.4943
51.4917
51.489
51.4864
51.4838
51.4811
51.4785
51.4758
51.4732
51.4705
51.4679
51.4653
51.4626
51.46
51.4573
51.4547
51.4521
51.4494
51.4468
51.4442
51.4415
51.4389
51.4363
51.4336
51.431
51.4283
51.4257
51.4231
51.4204
51.4178
51.4152
51.4125
51.4099
51.4073
51.4047
51.402
51.3994
51.3968
51.3941
51.3915
51.3889
51.3862
51.3836
51.381
51.3784
51.3757
51.3731
51.3705
51.3679
51.3652
51.3626
51.36
51.3574
51.3547
51.3521
51.3495
51.3469
51.3442
51.3416
51.339
51.3364
51.3337
51.3311
51.3285
51.3259
51.3233
51.3206
51.318
51.3154
51.3128
51.3102
51.3076
51.3049
51.3023
51.2997
51.2971
51.2945
51.2919
51.2892
51.2866
51.284
51.2814
51.2788
51.2762
51.2736
51.271
51.2683
51.2657
51.2631
51.2605
51.2579
51.2553
51.2527
51.2501
51.2475
51.2448
51.2422
51.2396
51.237
51.2344
51.2318
51.2292
51.2266
51.224
51.2214
51.2188
51.2162
51.2136
51.211
51.2084
51.2058
51.2032
51.2006
51.198
51.1954
51.1928
51.1902
51.1876
51.185
51.1824
51.1798
51.1772
51.1746
51.172
51.1694
51.1668
51.1642
51.1616
51.159
51.1564
51.1538
51.1512
51.1486
51.146
51.1434
51.1408
51.1382
51.1356
51.133
51.1304
51.1278
51.1253
51.1227
51.1201
51.1175
51.1149
51.1123
51.1097
51.1071
51.1045
51.1019
51.0994
51.0968
51.0942
51.0916
51.089
51.0864
51.0838
51.0813
51.0787
51.0761
51.0735
51.0709
51.0683
51.0658
51.0632
51.0606
51.058
51.0554
51.0528
51.0503
51.0477
51.0451
51.0425
51.0399
51.0374
51.0348
51.0322
51.0296
51.027
51.0245
51.0219
51.0193
51.0167
51.0142
51.0116
51.009
51.0064
51.0039
51.0013
50.9987
50.9961
50.9936
50.991
50.9884
50.9859
50.9833
50.9807
50.9781
50.9756
50.973
50.9704
50.9679
50.9653
50.9627
50.9602
50.9576
50.955
50.9525
50.9499
50.9473
50.9448
50.9422
50.9396
50.9371
50.9345
50.9319
50.9294
50.9268
50.9243
50.9217
50.9191
50.9166
50.914
50.9114
50.9089
50.9063
50.9038
50.9012
50.8986
50.8961
50.8935
50.891
50.8884
50.8859
50.8833
50.8807
50.8782
50.8756
50.8731
50.8705
50.868
50.8654
50.8629
50.8603
50.8577
50.8552
50.8526
50.8501
50.8475
50.845
50.8424
50.8399
50.8373
50.8348
50.8322
50.8297
50.8271
50.8246
50.822
50.8195
50.8169
50.8144
50.8119
50.8093
50.8068
50.8042
50.8017
50.7991
50.7966
50.794
50.7915
50.789
50.7864
50.7839
50.7813
50.7788
50.7762
50.7737
50.7712
50.7686
50.7661
50.7635
50.761
50.7585
50.7559
50.7534
50.7508
50.7483
50.7458
50.7432
50.7407
50.7382
50.7356
50.7331
50.7306
50.728
50.7255
50.723
50.7204
50.7179
50.7154
50.7128
50.7103
50.7078
50.7052
50.7027
50.7002
50.6976
50.6951
50.6926
50.69
50.6875
50.685
50.6825
50.6799
50.6774
50.6749
50.6724
50.6698
50.6673
50.6648
50.6623
50.6597
50.6572
50.6547
50.6522
50.6496
50.6471
50.6446
50.6421
50.6395
50.637
50.6345
50.632
50.6295
50.6269
50.6244
50.6219
50.6194
50.6169
50.6143
50.6118
50.6093
50.6068
50.6043
50.6018
50.5992
50.5967
50.5942
50.5917
50.5892
50.5867
50.5842
50.5816
50.5791
50.5766
50.5741
50.5716
50.5691
50.5666
50.5641
50.5616
50.559
50.5565
50.554
50.5515
50.549
50.5465
50.544
50.5415
50.539
50.5365
50.534
50.5315
50.529
50.5264
50.5239
50.5214
50.5189
50.5164
50.5139
50.5114
50.5089
50.5064
50.5039
50.5014
50.4989
50.4964
50.4939
50.4914
50.4889
50.4864
50.4839
50.4814
50.4789
50.4764
50.4739
50.4714
50.4689
50.4664
50.4639
50.4614
50.4589
50.4564
50.4539
50.4515
50.449
50.4465
50.444
50.4415
50.439
50.4365
50.434
50.4315
50.429
50.4265
50.424
50.4216
50.4191
50.4166
50.4141
50.4116
50.4091
50.4066
50.4041
50.4016
50.3992
50.3967
50.3942
50.3917
50.3892
50.3867
50.3842
50.3818
50.3793
50.3768
50.3743
50.3718
50.3693
50.3669
50.3644
50.3619
50.3594
50.3569
50.3545
50.352
50.3495
50.347
50.3445
50.3421
50.3396
50.3371
50.3346
50.3321
50.3297
50.3272
50.3247
50.3222
50.3198
50.3173
50.3148
50.3123
50.3099
50.3074
50.3049
50.3025
50.3
50.2975
50.295
50.2926
50.2901
50.2876
50.2852
50.2827
50.2802
50.2777
50.2753
50.2728
50.2703
50.2679
50.2654
50.2629
50.2605
50.258
50.2555
50.2531
50.2506
50.2481
50.2457
50.2432
50.2408
50.2383
50.2358
50.2334
50.2309
50.2284
50.226
50.2235
50.2211
50.2186
50.2161
50.2137
50.2112
50.2088
50.2063
50.2038
50.2014
50.1989
50.1965
50.194
50.1916
50.1891
50.1866
50.1842
50.1817
50.1793
50.1768
50.1744
50.1719
50.1695
50.167
50.1646
50.1621
50.1597
50.1572
50.1548
50.1523
50.1499
50.1474
50.145
50.1425
50.1401
50.1376
50.1352
50.1327
50.1303
50.1278
50.1254
50.1229
50.1205
50.118
50.1156
50.1131
50.1107
50.1083
50.1058
50.1034
50.1009
50.0985
50.096
50.0936
50.0912
50.0887
50.0863
50.0838
50.0814
50.079
50.0765
50.0741
50.0716
50.0692
50.0668
50.0643
50.0619
50.0594
50.057
50.0546
50.0521
50.0497
50.0473
50.0448
50.0424
50.04
50.0375
50.0351
50.0327
50.0302
50.0278
50.0254
50.0229
50.0205
50.0181
50.0156
50.0132
50.0108
50.0083
50.0059
50.0035
50.0011
49.9986
49.9962
49.9938
49.9914
49.9889
49.9865
49.9841
49.9816
49.9792
49.9768
49.9744
49.972
49.9695
49.9671
49.9647
49.9623
49.9598
49.9574
49.955
49.9526
49.9501
49.9477
49.9453
49.9429
49.9405
49.9381
49.9356
49.9332
49.9308
49.9284
49.926
49.9235
49.9211
49.9187
49.9163
49.9139
49.9115
49.909
49.9066
49.9042
49.9018
49.8994
49.897
49.8946
49.8922
49.8897
49.8873
49.8849
49.8825
49.8801
49.8777
49.8753
49.8729
49.8705
49.8681
49.8656
49.8632
49.8608
49.8584
49.856
49.8536
49.8512
49.8488
49.8464
49.844
49.8416
49.8392
49.8368
49.8344
49.832
49.8296
49.8272
49.8248
49.8224
49.82
49.8176
49.8151
49.8127
49.8103
49.8079
49.8055
49.8032
49.8008
49.7984
49.796
49.7936
49.7912
49.7888
49.7864
49.784
49.7816
49.7792
49.7768
49.7744
49.772
49.7696
49.7672
49.7648
49.7624
49.76
49.7576
49.7552
49.7529
49.7505
49.7481
49.7457
49.7433
49.7409
49.7385
49.7361
49.7337
49.7313
49.729
49.7266
49.7242
49.7218
49.7194
49.717
49.7146
49.7122
49.7099
49.7075
49.7051
49.7027
49.7003
49.6979
49.6956
49.6932
49.6908
49.6884
49.686
49.6836
49.6813
49.6789
49.6765
49.6741
49.6717
49.6694
49.667
49.6646
49.6622
49.6599
49.6575
49.6551
49.6527
49.6503
49.648
49.6456
49.6432
49.6408
49.6385
49.6361
49.6337
49.6313
49.629
49.6266
49.6242
49.6219
49.6195
49.6171
49.6147
49.6124
49.61
49.6076
49.6053
49.6029
49.6005
49.5982
49.5958
49.5934
49.5911
49.5887
49.5863
49.584
49.5816
49.5792
49.5769
49.5745
49.5721
49.5698
49.5674
49.565
49.5627
49.5603
49.5579
49.5556
49.5532
49.5509
49.5485
49.5461
49.5438
49.5414
49.5391
49.5367
49.5343
49.532
49.5296
49.5273
49.5249
49.5225
49.5202
49.5178
49.5155
49.5131
49.5108
49.5084
49.5061
49.5037
49.5013
49.499
49.4966
49.4943
49.4919
49.4896
49.4872
49.4849
49.4825
49.4802
49.4778
49.4755
49.4731
49.4708
49.4684
49.4661
49.4637
49.4614
49.459
49.4567
49.4543
49.452
49.4496
49.4473
49.445
49.4426
49.4403
49.4379
49.4356
49.4332
49.4309
49.4285
49.4262
49.4239
49.4215
49.4192
49.4168
49.4145
49.4122
49.4098
49.4075
49.4051
49.4028
49.4005
49.3981
49.3958
49.3934
49.3911
49.3888
49.3864
49.3841
49.3818
49.3794
49.3771
49.3748
49.3724
49.3701
49.3677
49.3654
49.3631
49.3607
49.3584
49.3561
49.3538
49.3514
49.3491
49.3468
49.3444
49.3421
49.3398
49.3374
49.3351
49.3328
49.3305
49.3281
49.3258
49.3235
49.3211
49.3188
49.3165
49.3142
49.3118
49.3095
49.3072
49.3049
49.3025
49.3002
49.2979
49.2956
49.2932
49.2909
49.2886
49.2863
49.284
49.2816
49.2793
49.277
49.2747
49.2724
49.27
49.2677
49.2654
49.2631
49.2608
49.2584
49.2561
49.2538
49.2515
49.2492
49.2469
49.2445
49.2422
49.2399
49.2376
49.2353
49.233
49.2307
49.2283
49.226
49.2237
49.2214
49.2191
49.2168
49.2145
49.2122
49.2099
49.2075
49.2052
49.2029
49.2006
49.1983
49.196
49.1937
49.1914
49.1891
49.1868
49.1845
49.1822
49.1799
49.1776
49.1752
49.1729
49.1706
49.1683
49.166
49.1637
49.1614
49.1591
49.1568
49.1545
49.1522
49.1499
49.1476
49.1453
49.143
49.1407
49.1384
49.1361
49.1338
49.1315
49.1292
49.1269
49.1246
49.1223
49.12
49.1177
49.1154
49.1131
49.1109
49.1086
49.1063
49.104
49.1017
49.0994
49.0971
49.0948
49.0925
49.0902
49.0879
49.0856
49.0833
49.081
49.0788
49.0765
49.0742
49.0719
49.0696
49.0673
49.065
49.0627
49.0604
49.0582
49.0559
49.0536
49.0513
49.049
49.0467
49.0444
49.0422
49.0399
49.0376
49.0353
49.033
49.0307
49.0285
49.0262
49.0239
49.0216
49.0193
49.0171
49.0148
49.0125
49.0102
49.0079
49.0057
49.0034
49.0011
48.9988
48.9965
48.9943
48.992
48.9897
48.9874
48.9852
48.9829
48.9806
48.9783
48.9761
48.9738
48.9715
48.9692
48.967
48.9647
48.9624
48.9601
48.9579
48.9556
48.9533
48.9511
48.9488
48.9465
48.9442
48.942
48.9397
48.9374
48.9352
48.9329
48.9306
48.9284
48.9261
48.9238
48.9216
48.9193
48.917
48.9148
48.9125
48.9102
48.908
48.9057
48.9035
48.9012
48.8989
48.8967
48.8944
48.8921
48.8899
48.8876
48.8854
48.8831
48.8808
48.8786
48.8763
48.8741
48.8718
48.8695
48.8673
48.865
48.8628
48.8605
48.8583
48.856
48.8537
48.8515
48.8492
48.847
48.8447
48.8425
48.8402
48.838
48.8357
48.8335
48.8312
48.829
48.8267
48.8244
48.8222
48.8199
48.8177
48.8154
48.8132
48.8109
48.8087
48.8065
48.8042
48.802
48.7997
48.7975
48.7952
48.793
48.7907
48.7885
48.7862
48.784
48.7817
48.7795
48.7773
48.775
48.7728
48.7705
48.7683
48.766
48.7638
48.7616
48.7593
48.7571
48.7548
48.7526
48.7503
48.7481
48.7459
48.7436
48.7414
48.7392
48.7369
48.7347
48.7324
48.7302
48.728
48.7257
48.7235
48.7213
48.719
48.7168
48.7146
48.7123
48.7101
48.7079
48.7056
48.7034
48.7012
48.6989
48.6967
48.6945
48.6922
48.69
48.6878
48.6855
48.6833
48.6811
48.6789
48.6766
48.6744
48.6722
48.6699
48.6677
48.6655
48.6633
48.661
48.6588
48.6566
48.6544
48.6521
48.6499
48.6477
48.6455
48.6432
48.641
48.6388
48.6366
48.6343
48.6321
48.6299
48.6277
48.6255
48.6232
48.621
48.6188
48.6166
48.6144
48.6121
48.6099
48.6077
48.6055
48.6033
48.6011
48.5988
48.5966
48.5944
48.5922
48.59
48.5878
48.5855
48.5833
48.5811
48.5789
48.5767
48.5745
48.5723
48.5701
48.5678
48.5656
48.5634
48.5612
48.559
48.5568
48.5546
48.5524
48.5502
48.548
48.5457
48.5435
48.5413
48.5391
48.5369
48.5347
48.5325
48.5303
48.5281
48.5259
48.5237
48.5215
48.5193
48.5171
48.5149
48.5127
48.5105
48.5083
48.5061
48.5039
48.5017
48.4994
48.4972
48.495
48.4928
48.4906
48.4884
48.4862
48.4841
48.4819
48.4797
48.4775
48.4753
48.4731
48.4709
48.4687
48.4665
48.4643
48.4621
48.4599
48.4577
48.4555
48.4533
48.4511
48.4489
48.4467
48.4445
48.4423
48.4401
48.438
48.4358
48.4336
48.4314
48.4292
48.427
48.4248
48.4226
48.4204
48.4182
48.4161
48.4139
48.4117
48.4095
48.4073
48.4051
48.4029
48.4008
48.3986
48.3964
48.3942
48.392
48.3898
48.3876
48.3855
48.3833
48.3811
48.3789
48.3767
48.3746
48.3724
48.3702
48.368
48.3658
48.3636
48.3615
48.3593
48.3571
48.3549
48.3528
48.3506
48.3484
48.3462
48.344
48.3419
48.3397
48.3375
48.3353
48.3332
48.331
48.3288
48.3266
48.3245
48.3223
48.3201
48.3179
48.3158
48.3136
48.3114
48.3093
48.3071
48.3049
48.3027
48.3006
48.2984
48.2962
48.2941
48.2919
48.2897
48.2876
48.2854
48.2832
48.2811
48.2789
48.2767
48.2746
48.2724
48.2702
48.2681
48.2659
48.2637
48.2616
48.2594
48.2572
48.2551
48.2529
48.2508
48.2486
48.2464
48.2443
48.2421
48.24
48.2378
48.2356
48.2335
48.2313
48.2292
48.227
48.2248
48.2227
48.2205
48.2184
48.2162
48.2141
48.2119
48.2097
48.2076
48.2054
48.2033
48.2011
48.199
48.1968
48.1947
48.1925
48.1904
48.1882
48.1861
48.1839
48.1817
48.1796
48.1774
48.1753
48.1731
48.171
48.1688
48.1667
48.1645
48.1624
48.1603
48.1581
48.156
48.1538
48.1517
48.1495
48.1474
48.1452
48.1431
48.1409
48.1388
48.1366
48.1345
48.1324
48.1302
48.1281
48.1259
48.1238
48.1216
48.1195
48.1174
48.1152
48.1131
48.1109
48.1088
48.1067
48.1045
48.1024
48.1002
48.0981
48.096
48.0938
48.0917
48.0896
48.0874
48.0853
48.0832
48.081
48.0789
48.0767
48.0746
48.0725
48.0703
48.0682
48.0661
48.0639
48.0618
48.0597
48.0575
48.0554
48.0533
48.0512
48.049
48.0469
48.0448
48.0426
48.0405
48.0384
48.0362
48.0341
48.032
48.0299
48.0277
48.0256
48.0235
48.0214
48.0192
48.0171
48.015
48.0129
48.0107
48.0086
48.0065
48.0044
48.0022
48.0001
47.998
47.9959
47.9938
47.9916
47.9895
47.9874
47.9853
47.9832
47.981
47.9789
47.9768
47.9747
47.9726
47.9704
47.9683
47.9662