# vtk DataFile Version 2.0
vtk output
ASCII
DATASET STRUCTURED_GRID
DIMENSIONS 50 10 30
POINTS 15000 float
0 0 0
1 0 0
2 0 0
3 0 0
4 0 0
5 0 0
6 0 0
7 0 0
8 0 0
9 0 0
10 0 0
11 0 0
12 0 0
13 0 0
14 0 0
15 0 0
16 0 0
17 0 0
18 0 0
19 0 0
20 0 0
21 0 0
22 0 0
23 0 0
24 0 0
25 0 0
26 0 0
27 0 0
28 0 0
29 0 0
30 0 0
31 0 0
32 0 0
33 0 0
34 0 0
35 0 0
36 0 0
37 0 0
38 0 0
39 0 0
40 0 0
41 0 0
42 0 0
43 0 0
44 0 0
45 0 0
46 0 0
47 0 0
48 0 0
49 0 0
0 1 0
1 1 0
2 1 0
3 1 0
4 1 0
5 1 0
6 1 0
7 1 0
8 1 0
9 1 0
10 1 0
11 1 0
12 1 0
13 1 0
14 1 0
15 1 0
16 1 0
17 1 0
18 1 0
19 1 0
20 1 0
21 1 0
22 1 0
23 1 0
24 1 0
25 1 0
26 1 0
27 1 0
28 1 0
29 1 0
30 1 0
31 1 0
32 1 0
33 1 0
34 1 0
35 1 0
36 1 0
37 1 0
38 1 0
39 1 0
40 1 0
41 1 0
42 1 0
43 1 0
44 1 0
45 1 0
46 1 0
47 1 0
48 1 0
49 1 0
0 2 0
1 2 0
2 2 0
3 2 0
4 2 0
5 2 0
6 2 0
7 2 0
8 2 0
9 2 0
10 2 0
11 2 0
12 2 0
13 2 0
14 2 0
15 2 0
16 2 0
17 2 0
18 2 0
19 2 0
20 2 0
21 2 0
22 2 0
23 2 0
24 2 0
25 2 0
26 2 0
27 2 0
28 2 0
29 2 0
30 2 0
31 2 0
32 2 0
33 2 0
34 2 0
35 2 0
36 2 0
37 2 0
38 2 0
39 2 0
40 2 0
41 2 0
42 2 0
43 2 0
44 2 0
45 2 0
46 2 0
47 2 0
48 2 0
49 2 0
0 3 0
1 3 0
2 3 0
3 3 0
4 3 0
5 3 0
6 3 0
7 3 0
8 3 0
9 3 0
10 3 0
11 3 0
12 3 0
13 3 0
14 3 0
15 3 0
16 3 0
17 3 0
18 3 0
19 3 0
20 3 0
21 3 0
22 3 0
23 3 0
24 3 0
25 3 0
26 3 0
27 3 0
28 3 0
29 3 0
30 3 0
31 3 0
32 3 0
33 3 0
34 3 0
35 3 0
36 3 0
37 3 0
38 3 0
39 3 0
40 3 0
41 3 0
42 3 0
43 3 0
44 3 0
45 3 0
46 3 0
47 3 0
48 3 0
49 3 0
0 4 0
1 4 0
2 4 0
3 4 0
4 4 0
5 4 0
6 4 0
7 4 0
8 4 0
9 4 0
10 4 0
11 4 0
12 4 0
13 4 0
14 4 0
15 4 0
16 4 0
17 4 0
18 4 0
19 4 0
20 4 0
21 4 0
22 4 0
23 4 0
24 4 0
25 4 0
26 4 0
27 4 0
28 4 0
29 4 0
30 4 0
31 4 0
32 4 0
33 4 0
34 4 0
35 4 0
36 4 0
37 4 0
38 4 0
39 4 0
40 4 0
41 4 0
42 4 0
43 4 0
44 4 0
45 4 0
46 4 0
47 4 0
48 4 0
49 4 0
0 5 0
1 5 0
2 5 0
3 5 0
4 5 0
5 5 0
6 5 0
7 5 0
8 5 0
9 5 0
10 5 0
11 5 0
12 5 0
13 5 0
14 5 0
15 5 0
16 5 0
17 5 0
18 5 0
19 5 0
20 5 0
21 5 0
22 5 0
23 5 0
24 5 0
25 5 0
26 5 0
27 5 0
28 5 0
29 5 0
30 5 0
31 5 0
32 5 0
33 5 0
34 5 0
35 5 0
36 5 0
37 5 0
38 5 0
39 5 0
40 5 0
41 5 0
42 5 0
43 5 0
44 5 0
45 5 0
46 5 0
47 5 0
48 5 0
49 5 0
0 6 0
1 6 0
2 6 0
3 6 0
4 6 0
5 6 0
6 6 0
7 6 0
8 6 0
9 6 0
10 6 0
11 6 0
12 6 0
13 6 0
14 6 0
15 6 0
16 6 0
17 6 0
18 6 0
19 6 0
20 6 0
21 6 0
22 6 0
23 6 0
24 6 0
25 6 0
26 6 0
27 6 0
28 6 0
29 6 0
30 6 0
31 6 0
32 6 0
33 6 0
34 6 0
35 6 0
36 6 0
37 6 0
38 6 0
39 6 0
40 6 0
41 6 0
42 6 0
43 6 0
44 6 0
45 6 0
46 6 0
47 6 0
48 6 0
49 6 0
0 7 0
1 7 0
2 7 0
3 7 0
4 7 0
5 7 0
6 7 0
7 7 0
8 7 0
9 7 0
10 7 0
11 7 0
12 7 0
13 7 0
14 7 0
15 7 0
16 7 0
17 7 0
18 7 0
19 7 0
20 7 0
21 7 0
22 7 0
23 7 0
24 7 0
25 7 0
26 7 0
27 7 0
28 7 0
29 7 0
30 7 0
31 7 0
32 7 0
33 7 0
34 7 0
35 7 0
36 7 0
37 7 0
38 7 0
39 7 0
40 7 0
41 7 0
42 7 0
43 7 0
44 7 0
45 7 0
46 7 0
47 7 0
48 7 0
49 7 0
0 8 0
1 8 0
2 8 0
3 8 0
4 8 0
5 8 0
6 8 0
7 8 0
8 8 0
9 8 0
10 8 0
11 8 0
12 8 0
13 8 0
14 8 0
15 8 0
16 8 0
17 8 0
18 8 0
19 8 0
20 8 0
21 8 0
22 8 0
23 8 0
24 8 0
25 8 0
26 8 0
27 8 0
28 8 0
29 8 0
30 8 0
31 8 0
32 8 0
33 8 0
34 8 0
35 8 0
36 8 0
37 8 0
38 8 0
39 8 0
40 8 0
41 8 0
42 8 0
43 8 0
44 8 0
45 8 0
46 8 0
47 8 0
48 8 0
49 8 0
0 9 0
1 9 0
2 9 0
3 9 0
4 9 0
5 9 0
6 9 0
7 9 0
8 9 0
9 9 0
10 9 0
11 9 0
12 9 0
13 9 0
14 9 0
15 9 0
16 9 0
17 9 0
18 9 0
19 9 0
20 9 0
21 9 0
22 9 0
23 9 0
24 9 0
25 9 0
26 9 0
27 9 0
28 9 0
29 9 0
30 9 0
31 9 0
32 9 0
33 9 0
34 9 0
35 9 0
36 9 0
37 9 0
38 9 0
39 9 0
40 9 0
41 9 0
42 9 0
43 9 0
44 9 0
45 9 0
46 9 0
47 9 0
48 9 0
49 9 0
0 0 1
1 0 1
2 0 1
3 0 1
4 0 1
5 0 1
6 0 1
7 0 1
8 0 1
9 0 1
10 0 1
11 0 1
12 0 1
13 0 1
14 0 1
15 0 1
16 0 1
17 0 1
18 0 1
19 0 1
20 0 1
21 0 1
22 0 1
23 0 1
24 0 1
25 0 1
26 0 1
27 0 1
28 0 1
29 0 1
30 0 1
31 0 1
32 0 1
33 0 1
34 0 1
35 0 1
36 0 1
37 0 1
38 0 1
39 0 1
40 0 1
41 0 1
42 0 1
43 0 1
44 0 1
45 0 1
46 0 1
47 0 1
48 0 1
49 0 1
0 1 1
1 1 1
2 1 1
3 1 1
4 1 1
5 1 1
6 1 1
7 1 1
8 1 1
9 1 1
10 1 1
11 1 1
12 1 1
13 1 1
14 1 1
15 1 1
16 1 1
17 1 1
18 1 1
19 1 1
20 1 1
21 1 1
22 1 1
23 1 1
24 1 1
25 1 1
26 1 1
27 1 1
28 1 1
29 1 1
30 1 1
31 1 1
32 1 1
33 1 1
34 1 1
35 1 1
36 1 1
37 1 1
38 1 1
39 1 1
40 1 1
41 1 1
42 1 1
43 1 1
44 1 1
45 1 1
46 1 1
47 1 1
48 1 1
49 1 1
0 2 1
1 2 1
2 2 1
3 2 1
4 2 1
5 2 1
6 2 1
7 2 1
8 2 1
9 2 1
10 2 1
11 2 1
12 2 1
13 2 1
14 2 1
15 2 1
16 2 1
17 2 1
18 2 1
19 2 1
20 2 1
21 2 1
22 2 1
23 2 1
24 2 1
25 2 1
26 2 1
27 2 1
28 2 1
29 2 1
30 2 1
31 2 1
32 2 1
33 2 1
34 2 1
35 2 1
36 2 1
37 2 1
38 2 1
39 2 1
40 2 1
41 2 1
42 2 1
43 2 1
44 2 1
45 2 1
46 2 1
47 2 1
48 2 1
49 2 1
0 3 1
1 3 1
2 3 1
3 3 1
4 3 1
5 3 1
6 3 1
7 3 1
8 3 1
9 3 1
10 3 1
11 3 1
12 3 1
13 3 1
14 3 1
15 3 1
16 3 1
17 3 1
18 3 1
19 3 1
20 3 1
21 3 1
22 3 1
23 3 1
24 3 1
25 3 1
26 3 1
27 3 1
28 3 1
29 3 1
30 3 1
31 3 1
32 3 1
33 3 1
34 3 1
35 3 1
36 3 1
37 3 1
38 3 1
39 3 1
40 3 1
41 3 1
42 3 1
43 3 1
44 3 1
45 3 1
46 3 1
47 3 1
48 3 1
49 3 1
0 4 1
1 4 1
2 4 1
3 4 1
4 4 1
5 4 1
6 4 1
7 4 1
8 4 1
9 4 1
10 4 1
11 4 1
12 4 1
13 4 1
14 4 1
15 4 1
16 4 1
17 4 1
18 4 1
19 4 1
20 4 1
21 4 1
22 4 1
23 4 1
24 4 1
25 4 1
26 4 1
27 4 1
28 4 1
29 4 1
30 4 1
31 4 1
32 4 1
33 4 1
34 4 1
35 4 1
36 4 1
37 4 1
38 4 1
39 4 1
40 4 1
41 4 1
42 4 1
43 4 1
44 4 1
45 4 1
46 4 1
47 4 1
48 4 1
49 4 1
0 5 1
1 5 1
2 5 1
3 5 1
4 5 1
5 5 1
6 5 1
7 5 1
8 5 1
9 5 1
10 5 1
11 5 1
12 5 1
13 5 1
14 5 1
15 5 1
16 5 1
17 5 1
18 5 1
19 5 1
20 5 1
21 5 1
22 5 1
23 5 1
24 5 1
25 5 1
26 5 1
27 5 1
28 5 1
29 5 1
30 5 1
31 5 1
32 5 1
33 5 1
34 5 1
35 5 1
36 5 1
37 5 1
38 5 1
39 5 1
40 5 1
41 5 1
42 5 1
43 5 1
44 5 1
45 5 1
46 5 1
47 5 1
48 5 1
49 5 1
0 6 1
1 6 1
2 6 1
3 6 1
4 6 1
5 6 1
6 6 1
7 6 1
8 6 1
9 6 1
10 6 1
11 6 1
12 6 1
13 6 1
14 6 1
15 6 1
16 6 1
17 6 1
18 6 1
19 6 1
20 6 1
21 6 1
22 6 1
23 6 1
24 6 1
25 6 1
26 6 1
27 6 1
28 6 1
29 6 1
30 6 1
31 6 1
32 6 1
33 6 1
34 6 1
35 6 1
36 6 1
37 6 1
38 6 1
39 6 1
40 6 1
41 6 1
42 6 1
43 6 1
44 6 1
45 6 1
46 6 1
47 6 1
48 6 1
49 6 1
0 7 1
1 7 1
2 7 1
3 7 1
4 7 1
5 7 1
6 7 1
7 7 1
8 7 1
9 7 1
10 7 1
11 7 1
12 7 1
13 7 1
14 7 1
15 7 1
16 7 1
17 7 1
18 7 1
19 7 1
20 7 1
21 7 1
22 7 1
23 7 1
24 7 1
25 7 1
26 7 1
27 7 1
28 7 1
29 7 1
30 7 1
31 7 1
32 7 1
33 7 1
34 7 1
35 7 1
36 7 1
37 7 1
38 7 1
39 7 1
40 7 1
41 7 1
42 7 1
43 7 1
44 7 1
45 7 1
46 7 1
47 7 1
48 7 1
49 7 1
0 8 1
1 8 1
2 8 1
3 8 1
4 8 1
5 8 1
6 8 1
7 8 1
8 8 1
9 8 1
10 8 1
11 8 1
12 8 1
13 8 1
14 8 1
15 8 1
16 8 1
17 8 1
18 8 1
19 8 1
20 8 1
21 8 1
22 8 1
23 8 1
24 8 1
25 8 1
26 8 1
27 8 1
28 8 1
29 8 1
30 8 1
31 8 1
32 8 1
33 8 1
34 8 1
35 8 1
36 8 1
37 8 1
38 8 1
39 8 1
40 8 1
41 8 1
42 8 1
43 8 1
44 8 1
45 8 1
46 8 1
47 8 1
48 8 1
49 8 1
0 9 1
1 9 1
2 9 1
3 9 1
4 9 1
5 9 1
6 9 1
7 9 1
8 9 1
9 9 1
10 9 1
11 9 1
12 9 1
13 9 1
14 9 1
15 9 1
16 9 1
17 9 1
18 9 1
19 9 1
20 9 1
21 9 1
22 9 1
23 9 1
24 9 1
25 9 1
26 9 1
27 9 1
28 9 1
29 9 1
30 9 1
31 9 1
32 9 1
33 9 1
34 9 1
35 9 1
36 9 1
37 9 1
38 9 1
39 9 1
40 9 1
41 9 1
42 9 1
43 9 1
44 9 1
45 9 1
46 9 1
47 9 1
48 9 1
49 9 1
0 0 2
1 0 2
2 0 2
3 0 2
4 0 2
5 0 2
6 0 2
7 0 2
8 0 2
9 0 2
10 0 2
11 0 2
12 0 2
13 0 2
14 0 2
15 0 2
16 0 2
17 0 2
18 0 2
19 0 2
20 0 2
21 0 2
22 0 2
23 0 2
24 0 2
25 0 2
26 0 2
27 0 2
28 0 2
29 0 2
30 0 2
31 0 2
32 0 2
33 0 2
34 0 2
35 0 2
36 0 2
37 0 2
38 0 2
39 0 2
40 0 2
41 0 2
42 0 2
43 0 2
44 0 2
45 0 2
46 0 2
47 0 2
48 0 2
49 0 2
0 1 2
1 1 2
2 1 2
3 1 2
4 1 2
5 1 2
6 1 2
7 1 2
8 1 2
9 1 2
10 1 2
11 1 2
12 1 2
13 1 2
14 1 2
15 1 2
16 1 2
17 1 2
18 1 2
19 1 2
20 1 2
21 1 2
22 1 2
23 1 2
24 1 2
25 1 2
26 1 2
27 1 2
28 1 2
29 1 2
30 1 2
31 1 2
32 1 2
33 1 2
34 1 2
35 1 2
36 1 2
37 1 2
38 1 2
39 1 2
40 1 2
41 1 2
42 1 2
43 1 2
44 1 2
45 1 2
46 1 2
47 1 2
48 1 2
49 1 2
0 2 2
1 2 2
2 2 2
3 2 2
4 2 2
5 2 2
6 2 2
7 2 2
8 2 2
9 2 2
10 2 2
11 2 2
12 2 2
13 2 2
14 2 2
15 2 2
16 2 2
17 2 2
18 2 2
19 2 2
20 2 2
21 2 2
22 2 2
23 2 2
24 2 2
25 2 2
26 2 2
27 2 2
28 2 2
29 2 2
30 2 2
31 2 2
32 2 2
33 2 2
34 2 2
35 2 2
36 2 2
37 2 2
38 2 2
39 2 2
40 2 2
41 2 2
42 2 2
43 2 2
44 2 2
45 2 2
46 2 2
47 2 2
48 2 2
49 2 2
0 3 2
1 3 2
2 3 2
3 3 2
4 3 2
5 3 2
6 3 2
7 3 2
8 3 2
9 3 2
10 3 2
11 3 2
12 3 2
13 3 2
14 3 2
15 3 2
16 3 2
17 3 2
18 3 2
19 3 2
20 3 2
21 3 2
22 3 2
23 3 2
24 3 2
25 3 2
26 3 2
27 3 2
28 3 2
29 3 2
30 3 2
31 3 2
32 3 2
33 3 2
34 3 2
35 3 2
36 3 2
37 3 2
38 3 2
39 3 2
40 3 2
41 3 2
42 3 2
43 3 2
44 3 2
45 3 2
46 3 2
47 3 2
48 3 2
49 3 2
0 4 2
1 4 2
2 4 2
3 4 2
4 4 2
5 4 2
6 4 2
7 4 2
8 4 2
9 4 2
10 4 2
11 4 2
12 4 2
13 4 2
14 4 2
15 4 2
16 4 2
17 4 2
18 4 2
19 4 2
20 4 2
21 4 2
22 4 2
23 4 2
24 4 2
25 4 2
26 4 2
27 4 2
28 4 2
29 4 2
30 4 2
31 4 2
32 4 2
33 4 2
34 4 2
35 4 2
36 4 2
37 4 2
38 4 2
39 4 2
40 4 2
41 4 2
42 4 2
43 4 2
44 4 2
45 4 2
46 4 2
47 4 2
48 4 2
49 4 2
0 5 2
1 5 2
2 5 2
3 5 2
4 5 2
5 5 2
6 5 2
7 5 2
8 5 2
9 5 2
10 5 2
11 5 2
12 5 2
13 5 2
14 5 2
15 5 2
16 5 2
17 5 2
18 5 2
19 5 2
20 5 2
21 5 2
22 5 2
23 5 2
24 5 2
25 5 2
26 5 2
27 5 2
28 5 2
29 5 2
30 5 2
31 5 2
32 5 2
33 5 2
34 5 2
35 5 2
36 5 2
37 5 2
38 5 2
39 5 2
40 5 2
41 5 2
42 5 2
43 5 2
44 5 2
45 5 2
46 5 2
47 5 2
48 5 2
49 5 2
0 6 2
1 6 2
2 6 2
3 6 2
4 6 2
5 6 2
6 6 2
7 6 2
8 6 2
9 6 2
10 6 2
11 6 2
12 6 2
13 6 2
14 6 2
15 6 2
16 6 2
17 6 2
18 6 2
19 6 2
20 6 2
21 6 2
22 6 2
23 6 2
24 6 2
25 6 2
26 6 2
27 6 2
28 6 2
29 6 2
30 6 2
31 6 2
32 6 2
33 6 2
34 6 2
35 6 2
36 6 2
37 6 2
38 6 2
39 6 2
40 6 2
41 6 2
42 6 2
43 6 2
44 6 2
45 6 2
46 6 2
47 6 2
48 6 2
49 6 2
0 7 2
1 7 2
2 7 2
3 7 2
4 7 2
5 7 2
6 7 2
7 7 2
8 7 2
9 7 2
10 7 2
11 7 2
12 7 2
13 7 2
14 7 2
15 7 2
16 7 2
17 7 2
18 7 2
19 7 2
20 7 2
21 7 2
22 7 2
23 7 2
24 7 2
25 7 2
26 7 2
27 7 2
28 7 2
29 7 2
30 7 2
31 7 2
32 7 2
33 7 2
34 7 2
35 7 2
36 7 2
37 7 2
38 7 2
39 7 2
40 7 2
41 7 2
42 7 2
43 7 2
44 7 2
45 7 2
46 7 2
47 7 2
48 7 2
49 7 2
0 8 2
1 8 2
2 8 2
3 8 2
4 8 2
5 8 2
6 8 2
7 8 2
8 8 2
9 8 2
10 8 2
11 8 2
12 8 2
13 8 2
14 8 2
15 8 2
16 8 2
17 8 2
18 8 2
19 8 2
20 8 2
21 8 2
22 8 2
23 8 2
24 8 2
25 8 2
26 8 2
27 8 2
28 8 2
29 8 2
30 8 2
31 8 2
32 8 2
33 8 2
34 8 2
35 8 2
36 8 2
37 8 2
38 8 2
39 8 2
40 8 2
41 8 2
42 8 2
43 8 2
44 8 2
45 8 2
46 8 2
47 8 2
48 8 2
49 8 2
0 9 2
1 9 2
2 9 2
3 9 2
4 9 2
[...]
POINT_DATA 15000
SCALARS sol474 float
LOOKUP_TABLE default
58.453
58.45
58.4469
58.4439
58.4409
58.4378
58.4348
58.4317
58.4287
58.4256
58.4226
58.4195
58.4165
58.4134
58.4104
58.4074
58.4043
58.4013
58.3982
58.3952
58.3921
58.3891
58.3861
58.383
58.38
58.3769
58.3739
58.3709
58.3678
58.3648
58.3618
58.3587
58.3557
58.3526
58.3496
58.3466
58.3435
58.3405
58.3375
58.3344
58.3314
58.3284
58.3253
58.3223
58.3193
58.3162
58.3132
58.3102
58.3072
58.3041
58.3011
58.2981
58.295
58.292
58.289
58.286
58.2829
58.2799
58.2769
58.2739
58.2708
58.2678
58.2648
58.2618
58.2587
58.2557
58.2527
58.2497
58.2466
58.2436
58.2406
58.2376
58.2346
58.2315
58.2285
58.2255
58.2225
58.2195
58.2165
58.2134
58.2104
58.2074
58.2044
58.2014
58.1984
58.1953
58.1923
58.1893
58.1863
58.1833
58.1803
58.1773
58.1742
58.1712
58.1682
58.1652
58.1622
58.1592
58.1562
58.1532
58.1502
58.1472
58.1441
58.1411
58.1381
58.1351
58.1321
58.1291
58.1261
58.1231
58.1201
58.1171
58.1141
58.1111
58.1081
58.1051
58.1021
58.0991
58.0961
58.0931
58.0901
58.0871
58.0841
58.0811
58.0781
58.0751
58.0721
58.0691
58.0661
58.0631
58.0601
58.0571
58.0541
58.0511
58.0481
58.0451
58.0421
58.0391
58.0361
58.0331
58.0301
58.0271
58.0242
58.0212
58.0182
58.0152
58.0122
58.0092
58.0062
58.0032
58.0002
57.9972
57.9943
57.9913
57.9883
57.9853
57.9823
57.9793
57.9763
57.9734
57.9704
57.9674
57.9644
57.9614
57.9584
57.9555
57.9525
57.9495
57.9465
57.9435
57.9405
57.9376
57.9346
57.9316
57.9286
57.9256
57.9227
57.9197
57.9167
57.9137
57.9108
57.9078
57.9048
57.9018
57.8989
57.8959
57.8929
57.8899
57.887
57.884
57.881
57.878
57.8751
57.8721
57.8691
57.8662
57.8632
57.8602
57.8572
57.8543
57.8513
57.8483
57.8454
57.8424
57.8394
57.8365
57.8335
57.8305
57.8276
57.8246
57.8216
57.8187
57.8157
57.8127
57.8098
57.8068
57.8039
57.8009
57.7979
57.795
57.792
57.7891
57.7861
57.7831
57.7802
57.7772
57.7743
57.7713
57.7683
57.7654
57.7624
57.7595
57.7565
57.7536
57.7506
57.7477
57.7447
57.7417
57.7388
57.7358
57.7329
57.7299
57.727
57.724
57.7211
57.7181
57.7152
57.7122
57.7093
57.7063
57.7034
57.7004
57.6975
57.6945
57.6916
57.6886
57.6857
57.6827
57.6798
57.6769
57.6739
57.671
57.668
57.6651
57.6621
57.6592
57.6562
57.6533
57.6504
57.6474
57.6445
57.6415
57.6386
57.6357
57.6327
57.6298
57.6268
57.6239
57.621
57.618
57.6151
57.6122
57.6092
57.6063
57.6034
57.6004
57.5975
57.5945
57.5916
57.5887
57.5857
57.5828
57.5799
57.577
57.574
57.5711
57.5682
57.5652
57.5623
57.5594
57.5564
57.5535
57.5506
57.5477
57.5447
57.5418
57.5389
57.5359
57.533
57.5301
57.5272
57.5242
57.5213
57.5184
57.5155
57.5126
57.5096
57.5067
57.5038
57.5009
57.4979
57.495
57.4921
57.4892
57.4863
57.4833
57.4804
57.4775
57.4746
57.4717
57.4688
57.4658
57.4629
57.46
57.4571
57.4542
57.4513
57.4483
57.4454
57.4425
57.4396
57.4367
57.4338
57.4309
57.428
57.425
57.4221
57.4192
57.4163
57.4134
57.4105
57.4076
57.4047
57.4018
57.3989
57.3959
57.393
57.3901
57.3872
57.3843
57.3814
57.3785
57.3756
57.3727
57.3698
57.3669
57.364
57.3611
57.3582
57.3553
57.3524
57.3495
57.3466
57.3437
57.3408
57.3379
57.335
57.3321
57.3292
57.3263
57.3234
57.3205
57.3176
57.3147
57.3118
57.3089
57.306
57.3031
57.3002
57.2973
57.2944
57.2915
57.2887
57.2858
57.2829
57.28
57.2771
57.2742
57.2713
57.2684
57.2655
57.2626
57.2597
57.2569
57.254
57.2511
57.2482
57.2453
57.2424
57.2395
57.2367
57.2338
57.2309
57.228
57.2251
57.2222
57.2193
57.2165
57.2136
57.2107
57.2078
57.2049
57.2021
57.1992
57.1963
57.1934
57.1905
57.1877
57.1848
57.1819
57.179
57.1761
57.1733
57.1704
57.1675
57.1646
57.1618
57.1589
57.156
57.1531
57.1503
57.1474
57.1445
57.1416
57.1388
57.1359
57.133
57.1302
57.1273
57.1244
57.1215
57.1187
57.1158
57.1129
57.1101
57.1072
57.1043
57.1015
57.0986
57.0957
57.0929
57.09
57.0871
57.0843
57.0814
57.0785
57.0757
57.0728
57.07
57.0671
57.0642
57.0614
57.0585
57.0556
57.0528
57.0499
57.0471
57.0442
57.0413
57.0385
57.0356
57.0328
57.0299
57.0271
57.0242
57.0213
57.0185
57.0156
57.0128
57.0099
57.0071
57.0042
57.0014
56.9985
56.9956
56.9928
56.9899
56.9871
56.9842
56.9814
56.9785
56.9757
56.9728
56.97
56.9671
56.9643
56.9614
56.9586
56.9558
56.9529
56.9501
56.9472
56.9444
56.9415
56.9387
56.9358
56.933
56.9301
56.9273
56.9245
56.9216
56.9188
56.9159
56.9131
56.9102
56.9074
56.9046
56.9017
56.8989
56.896
56.8932
56.8904
56.8875
56.8847
56.8819
56.879
56.8762
56.8733
56.8705
56.8677
56.8648
56.862
56.8592
56.8563
56.8535
56.8507
56.8478
56.845
56.8422
56.8393
56.8365
56.8337
56.8309
56.828
56.8252
56.8224
56.8195
56.8167
56.8139
56.811
56.8082
56.8054
56.8026
56.7997
56.7969
56.7941
56.7913
56.7884
56.7856
56.7828
56.78
56.7771
56.7743
56.7715
56.7687
56.7659
56.763
56.7602
56.7574
56.7546
56.7518
56.7489
56.7461
56.7433
56.7405
56.7377
56.7349
56.732
56.7292
56.7264
56.7236
56.7208
56.718
56.7151
56.7123
56.7095
56.7067
56.7039
56.7011
56.6983
56.6955
56.6926
56.6898
56.687
56.6842
56.6814
56.6786
56.6758
56.673
56.6702
56.6674
56.6645
56.6617
56.6589
56.6561
56.6533
56.6505
56.6477
56.6449
56.6421
56.6393
56.6365
56.6337
56.6309
56.6281
56.6253
56.6225
56.6197
56.6169
56.6141
56.6113
56.6085
56.6057
56.6029
56.6001
56.5973
56.5945
56.5917
56.5889
56.5861
56.5833
56.5805
56.5777
56.5749
56.5721
56.5693
56.5665
56.5637
56.5609
56.5582
56.5554
56.5526
56.5498
56.547
56.5442
56.5414
56.5386
56.5358
56.533
56.5302
56.5275
56.5247
56.5219
56.5191
56.5163
56.5135
56.5107
56.5079
56.5052
56.5024
56.4996
56.4968
56.494
56.4912
56.4885
56.4857
56.4829
56.4801
56.4773
56.4745
56.4718
56.469
56.4662
56.4634
56.4606
56.4579
56.4551
56.4523
56.4495
56.4468
56.444
56.4412
56.4384
56.4356
56.4329
56.4301
56.4273
56.4246
56.4218
56.419
56.4162
56.4135
56.4107
56.4079
56.4051
56.4024
56.3996
56.3968
56.3941
56.3913
56.3885
56.3857
56.383
56.3802
56.3774
56.3747
56.3719
56.3691
56.3664
56.3636
56.3608
56.3581
56.3553
56.3526
56.3498
56.347
56.3443
56.3415
56.3387
56.336
56.3332
56.3305
56.3277
56.3249
56.3222
56.3194
56.3167
56.3139
56.3111
56.3084
56.3056
56.3029
56.3001
56.2973
56.2946
56.2918
56.2891
56.2863
56.2836
56.2808
56.2781
56.2753
56.2726
56.2698
56.267
56.2643
56.2615
56.2588
56.256
56.2533
56.2505
56.2478
56.245
56.2423
56.2395
56.2368
56.234
56.2313
56.2286
56.2258
56.2231
56.2203
56.2176
56.2148
56.2121
56.2093
56.2066
56.2038
56.2011
56.1984
56.1956
56.1929
56.1901
56.1874
56.1846
56.1819
56.1792
56.1764
56.1737
56.1709
56.1682
56.1655
56.1627
56.16
56.1573
56.1545
56.1518
56.1491
56.1463
56.1436
56.1408
56.1381
56.1354
56.1326
56.1299
56.1272
56.1244
56.1217
56.119
56.1162
56.1135
56.1108
56.1081
56.1053
56.1026
56.0999
56.0971
56.0944
56.0917
56.089
56.0862
56.0835
56.0808
56.078
56.0753
56.0726
56.0699
56.0671
56.0644
56.0617
56.059
56.0562
56.0535
56.0508
56.0481
56.0454
56.0426
56.0399
56.0372
56.0345
56.0318
56.029
56.0263
56.0236
56.0209
56.0182
56.0154
56.0127
56.01
56.0073
56.0046
56.0019
55.9992
55.9964
55.9937
55.991
55.9883
55.9856
55.9829
55.9802
55.9774
55.9747
55.972
55.9693
55.9666
55.9639
55.9612
55.9585
55.9558
55.9531
55.9503
55.9476
55.9449
55.9422
55.9395
55.9368
55.9341
55.9314
55.9287
55.926
55.9233
55.9206
55.9179
55.9152
55.9125
55.9098
55.9071
55.9044
55.9017
55.899
55.8963
55.8936
55.8909
55.8882
55.8855
55.8828
55.8801
55.8774
55.8747
55.872
55.8693
55.8666
55.8639
55.8612
55.8585
55.8558
55.8531
55.8504
55.8477
55.845
55.8423
55.8396
55.8369
55.8342
55.8315
55.8289
55.8262
55.8235
55.8208
55.8181
55.8154
55.8127
55.81
55.8073
55.8047
55.802
55.7993
55.7966
55.7939
55.7912
55.7885
55.7858
55.7832
55.7805
55.7778
55.7751
55.7724
55.7697
55.7671
55.7644
55.7617
55.759
55.7563
55.7537
55.751
55.7483
55.7456
55.7429
55.7403
55.7376
55.7349
55.7322
55.7295
55.7269
55.7242
55.7215
55.7188
55.7162
55.7135
55.7108
55.7081
55.7055
55.7028
55.7001
55.6974
55.6948
55.6921
55.6894
55.6868
55.6841
55.6814
55.6787
55.6761
55.6734
55.6707
55.6681
55.6654
55.6627
55.6601
55.6574
55.6547
55.6521
55.6494
55.6467
55.6441
55.6414
55.6387
55.6361
55.6334
55.6307
55.6281
55.6254
55.6228
55.6201
55.6174
55.6148
55.6121
55.6094
55.6068
55.6041
55.6015
55.5988
55.5962
55.5935
55.5908
55.5882
55.5855
55.5829
55.5802
55.5776
55.5749
55.5722
55.5696
55.5669
55.5643
55.5616
55.559
55.5563
55.5537
55.551
55.5484
55.5457
55.5431
55.5404
55.5378
55.5351
55.5325
55.5298
55.5272
55.5245
55.5219
55.5192
55.5166
55.5139
55.5113
55.5086
55.506
55.5033
55.5007
55.498
55.4954
55.4928
55.4901
55.4875
55.4848
55.4822
55.4795
55.4769
55.4743
55.4716
55.469
55.4663
55.4637
55.4611
55.4584
55.4558
55.4531
55.4505
55.4479
55.4452
55.4426
55.44
55.4373
55.4347
55.4321
55.4294
55.4268
55.4241
55.4215
55.4189
55.4162
55.4136
55.411
55.4083
55.4057
55.4031
55.4005
55.3978
55.3952
55.3926
55.3899
55.3873
55.3847
55.382
55.3794
55.3768
55.3742
55.3715
55.3689
55.3663
55.3637
55.361
55.3584
55.3558
55.3532
55.3505
55.3479
55.3453
55.3427
55.34
55.3374
55.3348
55.3322
55.3296
55.3269
55.3243
55.3217
55.3191
55.3165
55.3138
55.3112
55.3086
55.306
55.3034
55.3008
55.2981
55.2955
55.2929
55.2903
55.2877
55.2851
55.2824
55.2798
55.2772
55.2746
55.272
55.2694
55.2668
55.2642
55.2615
55.2589
55.2563
55.2537
55.2511
55.2485
55.2459
55.2433
55.2407
55.2381
55.2355
55.2328
55.2302
55.2276
55.225
55.2224
55.2198
55.2172
55.2146
55.212
55.2094
55.2068
55.2042
55.2016
55.199
55.1964
55.1938
55.1912
55.1886
55.186
55.1834
55.1808
55.1782
55.1756
55.173
55.1704
55.1678
55.1652
55.1626
55.16
55.1574
55.1548
55.1522
55.1496
55.147
55.1444
55.1418
55.1392
55.1366
55.1341
55.1315
55.1289
55.1263
55.1237
55.1211
55.1185
55.1159
55.1133
55.1107
55.1081
55.1056
55.103
55.1004
55.0978
55.0952
55.0926
55.09
55.0874
55.0849
55.0823
55.0797
55.0771
55.0745
55.0719
55.0693
55.0668
55.0642
55.0616
55.059
55.0564
55.0539
55.0513
55.0487
55.0461
55.0435
55.041
55.0384
55.0358
55.0332
55.0306
55.0281
55.0255
55.0229
55.0203
55.0178
55.0152
55.0126
55.01
55.0074
55.0049
55.0023
54.9997
54.9972
54.9946
54.992
54.9894
54.9869
54.9843
54.9817
54.9791
54.9766
54.974
54.9714
54.9689
54.9663
54.9637
54.9612
54.9586
54.956
54.9535
54.9509
54.9483
54.9458
54.9432
54.9406
54.9381
54.9355
54.9329
54.9304
54.9278
54.9252
54.9227
54.9201
54.9176
54.915
54.9124
54.9099
54.9073
54.9048
54.9022
54.8996
54.8971
54.8945
54.892
54.8894
54.8868
54.8843
54.8817
54.8792
54.8766
54.8741
54.8715
54.869
54.8664
54.8638
54.8613
54.8587
54.8562
54.8536
54.8511
54.8485
54.846
54.8434
54.8409
54.8383
54.8358
54.8332
54.8307
54.8281
54.8256
54.823
54.8205
54.8179
54.8154
54.8128
54.8103
54.8077
54.8052
54.8026
54.8001
54.7976
54.795
54.7925
54.7899
54.7874
54.7848
54.7823
54.7798
54.7772
54.7747
54.7721
54.7696
54.7671
54.7645
54.762
54.7594
54.7569
54.7544
54.7518
54.7493
54.7467
54.7442
54.7417
54.7391
54.7366
54.7341
54.7315
54.729
54.7265
54.7239
54.7214
54.7189
54.7163
54.7138
54.7113
54.7087
54.7062
54.7037
54.7011
54.6986
54.6961
54.6935
54.691
54.6885
54.686
54.6834
54.6809
54.6784
54.6758
54.6733
54.6708
54.6683
54.6657
54.6632
54.6607
54.6582
54.6556
54.6531
54.6506
54.6481
54.6455
54.643
54.6405
54.638
54.6355
54.6329
54.6304
54.6279
54.6254
54.6229
54.6203
54.6178
54.6153
54.6128
54.6103
54.6077
54.6052
54.6027
54.6002
54.5977
54.5952
54.5926
54.5901
54.5876
54.5851
54.5826
54.5801
54.5776
54.5751
54.5725
54.57
54.5675
54.565
54.5625
54.56
54.5575
54.555
54.5525
54.5499
54.5474
54.5449
54.5424
54.5399
54.5374
54.5349
54.5324
54.5299
54.5274
54.5249
54.5224
54.5199
54.5174
54.5149
54.5124
54.5099
54.5074
54.5048
54.5023
54.4998
54.4973
54.4948
54.4923
54.4898
54.4873
54.4848
54.4823
54.4798
54.4773
54.4748
54.4724
54.4699
54.4674
54.4649
54.4624
54.4599
54.4574
54.4549
54.4524
54.4499
54.4474
54.4449
54.4424
54.4399
54.4374
54.4349
54.4324
54.4299
54.4275
54.425
54.4225
54.42
54.4175
54.415
54.4125
54.41
54.4075
54.4051
54.4026
54.4001
54.3976
54.3951
54.3926
54.3901
54.3876
54.3852
54.3827
54.3802
54.3777
54.3752
54.3727
54.3703
54.3678
54.3653
54.3628
54.3603
54.3578
54.3554
54.3529
54.3504
54.3479
54.3455
54.343
54.3405
54.338
54.3355
54.3331
54.3306
54.3281
54.3256
54.3232
54.3207
54.3182
54.3157
54.3133
54.3108
54.3083
54.3058
54.3034
54.3009
54.2984
54.2959
54.2935
54.291
54.2885
54.2861
54.2836
54.2811
54.2786
54.2762
54.2737
54.2712
54.2688
54.2663
54.2638
54.2614
54.2589
54.2564
54.254
54.2515
54.249
54.2466
54.2441
54.2417
54.2392
54.2367
54.2343
54.2318
54.2293
54.2269
54.2244
54.222
54.2195
54.217
54.2146
54.2121
54.2097
54.2072
54.2047
54.2023
54.1998
54.1974
54.1949
54.1924
54.19
54.1875
54.1851
54.1826
54.1802
54.1777
54.1753
54.1728
54.1704
54.1679
54.1654
54.163
54.1605
54.1581
54.1556
54.1532
54.1507
54.1483
54.1458
54.1434
54.1409
54.1385
54.136
54.1336
54.1311
54.1287
54.1262
54.1238
54.1214
54.1189
54.1165
54.114
54.1116
54.1091
54.1067
54.1042
54.1018
54.0994
54.0969
54.0945
54.092
54.0896
54.0871
54.0847
54.0823
54.0798
54.0774
54.0749
54.0725
54.0701
54.0676
54.0652
54.0628
54.0603
54.0579
54.0554
54.053
54.0506
54.0481
54.0457
54.0433
54.0408
54.0384
54.036
54.0335
54.0311
54.0287
54.0262
54.0238
54.0214
54.0189
54.0165
54.0141
54.0116
54.0092
54.0068
54.0044
54.0019
53.9995
53.9971
53.9946
53.9922
53.9898
53.9874
53.9849
53.9825
53.9801
53.9777
53.9752
53.9728
53.9704
53.968
53.9655
53.9631
53.9607
53.9583
53.9558
53.9534
53.951
53.9486
53.9462
53.9437
53.9413
53.9389
53.9365
53.9341
53.9316
53.9292
53.9268
53.9244
53.922
53.9196
53.9171
53.9147
53.9123
53.9099
53.9075
53.9051
53.9027
53.9002
53.8978
53.8954
53.893
53.8906
53.8882
53.8858
53.8834
53.8809
53.8785
53.8761
53.8737
53.8713
53.8689
53.8665
53.8641
53.8617
53.8593
53.8569
53.8544
53.852
53.8496
53.8472
53.8448
53.8424
53.84
53.8376
53.8352
53.8328
53.8304
53.828
53.8256
53.8232
53.8208
53.8184
53.816
53.8136
53.8112
53.8088
53.8064
53.804
53.8016
53.7992
53.7968
53.7944
53.792
53.7896
53.7872
53.7848
53.7824
53.78
53.7776
53.7752
53.7728
53.7704
53.768
53.7656
53.7632
53.7609
53.7585
53.7561
53.7537
53.7513
53.7489
53.7465
53.7441
53.7417
53.7393
53.7369
53.7346
53.7322
53.7298
53.7274
53.725
53.7226
53.7202
53.7178
53.7155
53.7131
53.7107
53.7083
53.7059
53.7035
53.7011
53.6988
53.6964
53.694
53.6916
53.6892
53.6868
53.6845
53.6821
53.6797
53.6773
53.6749
53.6726
53.6702
53.6678
53.6654
53.663
53.6607
53.6583
53.6559
53.6535
53.6512
53.6488
53.6464
53.644
53.6417
53.6393
53.6369
53.6345
53.6322
53.6298
53.6274
53.625
53.6227
53.6203
53.6179
53.6155
53.6132
53.6108
53.6084
53.6061
53.6037
53.6013
53.599
53.5966
53.5942
53.5919
53.5895
53.5871
53.5848
53.5824
53.58
53.5777
53.5753
53.5729
53.5706
53.5682
53.5658
53.5635
53.5611
53.5587
53.5564
53.554
53.5517
53.5493
53.5469
53.5446
53.5422
53.5398
53.5375
53.5351
53.5328
53.5304
53.5281
53.5257
53.5233
53.521
53.5186
53.5163
53.5139
53.5116
53.5092
53.5068
53.5045
53.5021
53.4998
53.4974
53.4951
53.4927
53.4904
53.488
53.4857
53.4833
53.481
53.4786
53.4763
53.4739
53.4716
53.4692
53.4669
53.4645
53.4622
53.4598
53.4575
53.4551
53.4528
53.4504
53.4481
53.4457
53.4434
53.441
53.4387
53.4364
53.434
53.4317
53.4293
53.427
53.4246
53.4223
53.42
53.4176
53.4153
53.4129
53.4106
53.4082
53.4059
53.4036
53.4012
53.3989
53.3965
53.3942
53.3919
53.3895
53.3872
53.3849
53.3825
53.3802
53.3779
53.3755
53.3732
53.3708
53.3685
53.3662
53.3638
53.3615
53.3592
53.3568
53.3545
53.3522
53.3499
53.3475
53.3452
53.3429
53.3405
53.3382
53.3359
53.3335
53.3312
53.3289
53.3266
53.3242
53.3219
53.3196
53.3172
53.3149
53.3126
53.3103
53.3079
53.3056
53.3033
53.301
53.2986
53.2963
53.294
53.2917
53.2894
53.287
53.2847
53.2824
53.2801
53.2777
53.2754
53.2731
53.2708
53.2685
53.2662
53.2638
53.2615
53.2592
53.2569
53.2546
53.2522
53.2499
53.2476
53.2453
53.243
53.2407
53.2384
53.236
53.2337
53.2314
53.2291
53.2268
53.2245
53.2222
53.2198
53.2175
53.2152
53.2129
53.2106
53.2083
53.206
53.2037
53.2014
53.1991
53.1967
53.1944
53.1921
53.1898
53.1875
53.1852
53.1829
53.1806
53.1783
53.176
53.1737
53.1714
53.1691
53.1668
53.1645
53.1622
53.1599
53.1576
53.1553
53.153
53.1507
53.1483
53.146
53.1437
53.1414
53.1391
53.1368
53.1346
53.1323
53.13
53.1277
53.1254
53.1231
53.1208
53.1185
53.1162
53.1139
53.1116
53.1093
53.107
53.1047
53.1024
53.1001
53.0978
53.0955
53.0932
53.0909
53.0886
53.0864
53.0841
53.0818
53.0795
53.0772
53.0749
53.0726
53.0703
53.068
53.0657
53.0635
53.0612
53.0589
53.0566
53.0543
53.052
53.0497
53.0474
53.0452
53.0429
53.0406
53.0383
53.036
53.0337
53.0315
53.0292
53.0269
53.0246
53.0223
53.02
53.0178
53.0155
53.0132
53.0109
53.0086
53.0064
53.0041
53.0018
52.9995
52.9973
52.995
52.9927
52.9904
52.9881
52.9859
52.9836
52.9813
52.979
52.9768
52.9745
52.9722
52.9699
52.9677
52.9654
52.9631
52.9608
52.9586
52.9563
52.954
52.9518
52.9495
52.9472
52.945
52.9427
52.9404
52.9381
52.9359
52.9336
52.9313
52.9291
52.9268
52.9245
52.9223
52.92
52.9177
52.9155
52.9132
52.9109
52.9087
52.9064
52.9041
52.9019
52.8996
52.8974
52.8951
52.8928
52.8906
52.8883
52.8861
52.8838
52.8815
52.8793
52.877
52.8748
52.8725
52.8702
52.868
52.8657
52.8635
52.8612
52.8589
52.8567
52.8544
52.8522
52.8499
52.8477
52.8454
52.8432
52.8409
52.8386
52.8364
52.8341
52.8319
52.8296
52.8274
52.8251
52.8229
52.8206
52.8184
52.8161
52.8139
52.8116
52.8094
52.8071
52.8049
52.8026
52.8004
52.7981
52.7959
52.7936
52.7914
52.7892
52.7869
52.7847
52.7824
52.7802
52.7779
52.7757
52.7734
52.7712
52.769
52.7667
52.7645
52.7622
52.76
52.7577
52.7555
52.7533
52.751
52.7488
52.7465
52.7443
52.7421
52.7398
52.7376
52.7353
52.7331
52.7309
52.7286
52.7264
52.7242
52.7219
52.7197
52.7175
52.7152
52.713
52.7108
52.7085
52.7063
52.7041
52.7018
52.6996
52.6974
52.6951
52.6929
52.6907
52.6884
52.6862
52.684
52.6817
52.6795
52.6773
52.6751
52.6728
52.6706
52.6684
52.6661
52.6639
52.6617
52.6595
52.6572
52.655
52.6528
52.6506
52.6483
52.6461
52.6439
52.6417
52.6394
52.6372
52.635
52.6328
52.6306
52.6283
52.6261
52.6239
52.6217
52.6195
52.6172
52.615
52.6128
52.6106
52.6084
52.6061
52.6039
52.6017
52.5995
52.5973
52.5951
52.5928
52.5906
52.5884
52.5862
52.584
52.5818
52.5796
52.5773
52.5751
52.5729
52.5707
52.5685
52.5663
52.5641
52.5619
52.5596
52.5574
52.5552
52.553
52.5508
52.5486
52.5464
52.5442
52.542
52.5398
52.5376
52.5353
52.5331
52.5309
52.5287
52.5265
52.5243
52.5221
52.5199
52.5177
52.5155
52.5133
52.5111
52.5089
52.5067
52.5045
52.5023
52.5001
52.4979
52.4957
52.4935
52.4913
52.4891
52.4869
52.4847
52.4825
52.4803
52.4781
52.4759
52.4737
52.4715
52.4693
52.4671
52.4649
52.4627
52.4605
52.4583
52.4561
52.4539
52.4517
52.4495
52.4474
52.4452
52.443
52.4408
52.4386
52.4364
52.4342
52.432
52.4298
52.4276
52.4254
52.4232
52.4211
52.4189
52.4167
52.4145
52.4123
52.4101
52.4079
52.4057
52.4036
52.4014
52.3992
52.397
52.3948
52.3926
52.3904
52.3883
52.3861
52.3839
52.3817
52.3795
52.3773
52.3752
52.373
52.3708
52.3686
52.3664
52.3643
52.3621
52.3599
52.3577
52.3555
52.3534
52.3512
52.349
52.3468
52.3447
52.3425
52.3403
52.3381
52.3359
52.3338
52.3316
52.3294
52.3272
52.3251
52.3229
52.3207
52.3186
52.3164
52.3142
52.312
52.3099
52.3077
52.3055
52.3034
52.3012
52.299
52.2968
52.2947
52.2925
52.2903
52.2882
52.286
52.2838
52.2817
52.2795
52.2773
52.2752
52.273
52.2708
52.2687
52.2665
52.2643
52.2622
52.26
52.2578
52.2557
52.2535
52.2514
52.2492
52.247
52.2449
52.2427
52.2405
52.2384
52.2362
52.2341
52.2319
52.2297
52.2276
52.2254
52.2233
52.2211
52.219
52.2168
52.2146
52.2125
52.2103
52.2082
52.206
52.2039
52.2017
52.1996
52.1974
52.1952
52.1931
52.1909
52.1888
52.1866
52.1845
52.1823
52.1802
52.178
52.1759
52.1737
52.1716
52.1694
52.1673
52.1651
52.163
52.1608
52.1587
52.1565
52.1544
52.1522
52.1501
52.148
52.1458
52.1437
52.1415
52.1394
52.1372
52.1351
52.1329
52.1308
52.1287
52.1265
52.1244
52.1222
52.1201
52.1179
52.1158
52.1137
52.1115
52.1094
52.1072
52.1051
52.103
52.1008
52.0987
52.0965
52.0944
52.0923
52.0901
52.088
52.0859
52.0837
52.0816
52.0794
52.0773
52.0752
52.073
52.0709
52.0688
52.0666
52.0645
52.0624
52.0602
52.0581
52.056
52.0539
52.0517
52.0496
52.0475
52.0453
52.0432
52.0411
52.0389
52.0368
52.0347
52.0326
52.0304
52.0283
52.0262
52.024
52.0219
52.0198
52.0177
52.0155
52.0134
52.0113
52.0092
52.007
52.0049
52.0028
52.0007
51.9986
51.9964
51.9943
51.9922
51.9901
51.9879
51.9858
51.9837
51.9816
51.9795
51.9773
51.9752
51.9731
51.971