# vtk DataFile Version 2.0
vtk output
ASCII
DATASET STRUCTURED_GRID
DIMENSIONS 50 10 30
POINTS 15000 float
0 0 0
1 0 0
2 0 0
3 0 0
4 0 0
5 0 0
6 0 0
7 0 0
8 0 0
9 0 0
10 0 0
11 0 0
12 0 0
13 0 0
14 0 0
15 0 0
16 0 0
17 0 0
18 0 0
19 0 0
20 0 0
21 0 0
22 0 0
23 0 0
24 0 0
25 0 0
26 0 0
27 0 0
28 0 0
29 0 0
30 0 0
31 0 0
32 0 0
33 0 0
34 0 0
35 0 0
36 0 0
37 0 0
38 0 0
39 0 0
40 0 0
41 0 0
42 0 0
43 0 0
44 0 0
45 0 0
46 0 0
47 0 0
48 0 0
49 0 0
0 1 0
1 1 0
2 1 0
3 1 0
4 1 0
5 1 0
6 1 0
7 1 0
8 1 0
9 1 0
10 1 0
11 1 0
12 1 0
13 1 0
14 1 0
15 1 0
16 1 0
17 1 0
18 1 0
19 1 0
20 1 0
21 1 0
22 1 0
23 1 0
24 1 0
25 1 0
26 1 0
27 1 0
28 1 0
29 1 0
30 1 0
31 1 0
32 1 0
33 1 0
34 1 0
35 1 0
36 1 0
37 1 0
38 1 0
39 1 0
40 1 0
41 1 0
42 1 0
43 1 0
44 1 0
45 1 0
46 1 0
47 1 0
48 1 0
49 1 0
0 2 0
1 2 0
2 2 0
3 2 0
4 2 0
5 2 0
6 2 0
7 2 0
8 2 0
9 2 0
10 2 0
11 2 0
12 2 0
13 2 0
14 2 0
15 2 0
16 2 0
17 2 0
18 2 0
19 2 0
20 2 0
21 2 0
22 2 0
23 2 0
24 2 0
25 2 0
26 2 0
27 2 0
28 2 0
29 2 0
30 2 0
31 2 0
32 2 0
33 2 0
34 2 0
35 2 0
36 2 0
37 2 0
38 2 0
39 2 0
40 2 0
41 2 0
42 2 0
43 2 0
44 2 0
45 2 0
46 2 0
47 2 0
48 2 0
49 2 0
0 3 0
1 3 0
2 3 0
3 3 0
4 3 0
5 3 0
6 3 0
7 3 0
8 3 0
9 3 0
10 3 0
11 3 0
12 3 0
13 3 0
14 3 0
15 3 0
16 3 0
17 3 0
18 3 0
19 3 0
20 3 0
21 3 0
22 3 0
23 3 0
24 3 0
25 3 0
26 3 0
27 3 0
28 3 0
29 3 0
30 3 0
31 3 0
32 3 0
33 3 0
34 3 0
35 3 0
36 3 0
37 3 0
38 3 0
39 3 0
40 3 0
41 3 0
42 3 0
43 3 0
44 3 0
45 3 0
46 3 0
47 3 0
48 3 0
49 3 0
0 4 0
1 4 0
2 4 0
3 4 0
4 4 0
5 4 0
6 4 0
7 4 0
8 4 0
9 4 0
10 4 0
11 4 0
12 4 0
13 4 0
14 4 0
15 4 0
16 4 0
17 4 0
18 4 0
19 4 0
20 4 0
21 4 0
22 4 0
23 4 0
24 4 0
25 4 0
26 4 0
27 4 0
28 4 0
29 4 0
30 4 0
31 4 0
32 4 0
33 4 0
34 4 0
35 4 0
36 4 0
37 4 0
38 4 0
39 4 0
40 4 0
41 4 0
42 4 0
43 4 0
44 4 0
45 4 0
46 4 0
47 4 0
48 4 0
49 4 0
0 5 0
1 5 0
2 5 0
3 5 0
4 5 0
5 5 0
6 5 0
7 5 0
8 5 0
9 5 0
10 5 0
11 5 0
12 5 0
13 5 0
14 5 0
15 5 0
16 5 0
17 5 0
18 5 0
19 5 0
20 5 0
21 5 0
22 5 0
23 5 0
24 5 0
25 5 0
26 5 0
27 5 0
28 5 0
29 5 0
30 5 0
31 5 0
32 5 0
33 5 0
34 5 0
35 5 0
36 5 0
37 5 0
38 5 0
39 5 0
40 5 0
41 5 0
42 5 0
43 5 0
44 5 0
45 5 0
46 5 0
47 5 0
48 5 0
49 5 0
0 6 0
1 6 0
2 6 0
3 6 0
4 6 0
5 6 0
6 6 0
7 6 0
8 6 0
9 6 0
10 6 0
11 6 0
12 6 0
13 6 0
14 6 0
15 6 0
16 6 0
17 6 0
18 6 0
19 6 0
20 6 0
21 6 0
22 6 0
23 6 0
24 6 0
25 6 0
26 6 0
27 6 0
28 6 0
29 6 0
30 6 0
31 6 0
32 6 0
33 6 0
34 6 0
35 6 0
36 6 0
37 6 0
38 6 0
39 6 0
40 6 0
41 6 0
42 6 0
43 6 0
44 6 0
45 6 0
46 6 0
47 6 0
48 6 0
49 6 0
0 7 0
1 7 0
2 7 0
3 7 0
4 7 0
5 7 0
6 7 0
7 7 0
8 7 0
9 7 0
10 7 0
11 7 0
12 7 0
13 7 0
14 7 0
15 7 0
16 7 0
17 7 0
18 7 0
19 7 0
20 7 0
21 7 0
22 7 0
23 7 0
24 7 0
25 7 0
26 7 0
27 7 0
28 7 0
29 7 0
30 7 0
31 7 0
32 7 0
33 7 0
34 7 0
35 7 0
36 7 0
37 7 0
38 7 0
39 7 0
40 7 0
41 7 0
42 7 0
43 7 0
44 7 0
45 7 0
46 7 0
47 7 0
48 7 0
49 7 0
0 8 0
1 8 0
2 8 0
3 8 0
4 8 0
5 8 0
6 8 0
7 8 0
8 8 0
9 8 0
10 8 0
11 8 0
12 8 0
13 8 0
14 8 0
15 8 0
16 8 0
17 8 0
18 8 0
19 8 0
20 8 0
21 8 0
22 8 0
23 8 0
24 8 0
25 8 0
26 8 0
27 8 0
28 8 0
29 8 0
30 8 0
31 8 0
32 8 0
33 8 0
34 8 0
35 8 0
36 8 0
37 8 0
38 8 0
39 8 0
40 8 0
41 8 0
42 8 0
43 8 0
44 8 0
45 8 0
46 8 0
47 8 0
48 8 0
49 8 0
0 9 0
1 9 0
2 9 0
3 9 0
4 9 0
5 9 0
6 9 0
7 9 0
8 9 0
9 9 0
10 9 0
11 9 0
12 9 0
13 9 0
14 9 0
15 9 0
16 9 0
17 9 0
18 9 0
19 9 0
20 9 0
21 9 0
22 9 0
23 9 0
24 9 0
25 9 0
26 9 0
27 9 0
28 9 0
29 9 0
30 9 0
31 9 0
32 9 0
33 9 0
34 9 0
35 9 0
36 9 0
37 9 0
38 9 0
39 9 0
40 9 0
41 9 0
42 9 0
43 9 0
44 9 0
45 9 0
46 9 0
47 9 0
48 9 0
49 9 0
0 0 1
1 0 1
2 0 1
3 0 1
4 0 1
5 0 1
6 0 1
7 0 1
8 0 1
9 0 1
10 0 1
11 0 1
12 0 1
13 0 1
14 0 1
15 0 1
16 0 1
17 0 1
18 0 1
19 0 1
20 0 1
21 0 1
22 0 1
23 0 1
24 0 1
25 0 1
26 0 1
27 0 1
28 0 1
29 0 1
30 0 1
31 0 1
32 0 1
33 0 1
34 0 1
35 0 1
36 0 1
37 0 1
38 0 1
39 0 1
40 0 1
41 0 1
42 0 1
43 0 1
44 0 1
45 0 1
46 0 1
47 0 1
48 0 1
49 0 1
0 1 1
1 1 1
2 1 1
3 1 1
4 1 1
5 1 1
6 1 1
7 1 1
8 1 1
9 1 1
10 1 1
11 1 1
12 1 1
13 1 1
14 1 1
15 1 1
16 1 1
17 1 1
18 1 1
19 1 1
20 1 1
21 1 1
22 1 1
23 1 1
24 1 1
25 1 1
26 1 1
27 1 1
28 1 1
29 1 1
30 1 1
31 1 1
32 1 1
33 1 1
34 1 1
35 1 1
36 1 1
37 1 1
38 1 1
39 1 1
40 1 1
41 1 1
42 1 1
43 1 1
44 1 1
45 1 1
46 1 1
47 1 1
48 1 1
49 1 1
0 2 1
1 2 1
2 2 1
3 2 1
4 2 1
5 2 1
6 2 1
7 2 1
8 2 1
9 2 1
10 2 1
11 2 1
12 2 1
13 2 1
14 2 1
15 2 1
16 2 1
17 2 1
18 2 1
19 2 1
20 2 1
21 2 1
22 2 1
23 2 1
24 2 1
25 2 1
26 2 1
27 2 1
28 2 1
29 2 1
30 2 1
31 2 1
32 2 1
33 2 1
34 2 1
35 2 1
36 2 1
37 2 1
38 2 1
39 2 1
40 2 1
41 2 1
42 2 1
43 2 1
44 2 1
45 2 1
46 2 1
47 2 1
48 2 1
49 2 1
0 3 1
1 3 1
2 3 1
3 3 1
4 3 1
5 3 1
6 3 1
7 3 1
8 3 1
9 3 1
10 3 1
11 3 1
12 3 1
13 3 1
14 3 1
15 3 1
16 3 1
17 3 1
18 3 1
19 3 1
20 3 1
21 3 1
22 3 1
23 3 1
24 3 1
25 3 1
26 3 1
27 3 1
28 3 1
29 3 1
30 3 1
31 3 1
32 3 1
33 3 1
34 3 1
35 3 1
36 3 1
37 3 1
38 3 1
39 3 1
40 3 1
41 3 1
42 3 1
43 3 1
44 3 1
45 3 1
46 3 1
47 3 1
48 3 1
49 3 1
0 4 1
1 4 1
2 4 1
3 4 1
4 4 1
5 4 1
6 4 1
7 4 1
8 4 1
9 4 1
10 4 1
11 4 1
12 4 1
13 4 1
14 4 1
15 4 1
16 4 1
17 4 1
18 4 1
19 4 1
20 4 1
21 4 1
22 4 1
23 4 1
24 4 1
25 4 1
26 4 1
27 4 1
28 4 1
29 4 1
30 4 1
31 4 1
32 4 1
33 4 1
34 4 1
35 4 1
36 4 1
37 4 1
38 4 1
39 4 1
40 4 1
41 4 1
42 4 1
43 4 1
44 4 1
45 4 1
46 4 1
47 4 1
48 4 1
49 4 1
0 5 1
1 5 1
2 5 1
3 5 1
4 5 1
5 5 1
6 5 1
7 5 1
8 5 1
9 5 1
10 5 1
11 5 1
12 5 1
13 5 1
14 5 1
15 5 1
16 5 1
17 5 1
18 5 1
19 5 1
20 5 1
21 5 1
22 5 1
23 5 1
24 5 1
25 5 1
26 5 1
27 5 1
28 5 1
29 5 1
30 5 1
31 5 1
32 5 1
33 5 1
34 5 1
35 5 1
36 5 1
37 5 1
38 5 1
39 5 1
40 5 1
41 5 1
42 5 1
43 5 1
44 5 1
45 5 1
46 5 1
47 5 1
48 5 1
49 5 1
0 6 1
1 6 1
2 6 1
3 6 1
4 6 1
5 6 1
6 6 1
7 6 1
8 6 1
9 6 1
10 6 1
11 6 1
12 6 1
13 6 1
14 6 1
15 6 1
16 6 1
17 6 1
18 6 1
19 6 1
20 6 1
21 6 1
22 6 1
23 6 1
24 6 1
25 6 1
26 6 1
27 6 1
28 6 1
29 6 1
30 6 1
31 6 1
32 6 1
33 6 1
34 6 1
35 6 1
36 6 1
37 6 1
38 6 1
39 6 1
40 6 1
41 6 1
42 6 1
43 6 1
44 6 1
45 6 1
46 6 1
47 6 1
48 6 1
49 6 1
0 7 1
1 7 1
2 7 1
3 7 1
4 7 1
5 7 1
6 7 1
7 7 1
8 7 1
9 7 1
10 7 1
11 7 1
12 7 1
13 7 1
14 7 1
15 7 1
16 7 1
17 7 1
18 7 1
19 7 1
20 7 1
21 7 1
22 7 1
23 7 1
24 7 1
25 7 1
26 7 1
27 7 1
28 7 1
29 7 1
30 7 1
31 7 1
32 7 1
33 7 1
34 7 1
35 7 1
36 7 1
37 7 1
38 7 1
39 7 1
40 7 1
41 7 1
42 7 1
43 7 1
44 7 1
45 7 1
46 7 1
47 7 1
48 7 1
49 7 1
0 8 1
1 8 1
2 8 1
3 8 1
4 8 1
5 8 1
6 8 1
7 8 1
8 8 1
9 8 1
10 8 1
11 8 1
12 8 1
13 8 1
14 8 1
15 8 1
16 8 1
17 8 1
18 8 1
19 8 1
20 8 1
21 8 1
22 8 1
23 8 1
24 8 1
25 8 1
26 8 1
27 8 1
28 8 1
29 8 1
30 8 1
31 8 1
32 8 1
33 8 1
34 8 1
35 8 1
36 8 1
37 8 1
38 8 1
39 8 1
40 8 1
41 8 1
42 8 1
43 8 1
44 8 1
45 8 1
46 8 1
47 8 1
48 8 1
49 8 1
0 9 1
1 9 1
2 9 1
3 9 1
4 9 1
5 9 1
6 9 1
7 9 1
8 9 1
9 9 1
10 9 1
11 9 1
12 9 1
13 9 1
14 9 1
15 9 1
16 9 1
17 9 1
18 9 1
19 9 1
20 9 1
21 9 1
22 9 1
23 9 1
24 9 1
25 9 1
26 9 1
27 9 1
28 9 1
29 9 1
30 9 1
31 9 1
32 9 1
33 9 1
34 9 1
35 9 1
36 9 1
37 9 1
38 9 1
39 9 1
40 9 1
41 9 1
42 9 1
43 9 1
44 9 1
45 9 1
46 9 1
47 9 1
48 9 1
49 9 1
0 0 2
1 0 2
2 0 2
3 0 2
4 0 2
5 0 2
6 0 2
7 0 2
8 0 2
9 0 2
10 0 2
11 0 2
12 0 2
13 0 2
14 0 2
15 0 2
16 0 2
17 0 2
18 0 2
19 0 2
20 0 2
21 0 2
22 0 2
23 0 2
24 0 2
25 0 2
26 0 2
27 0 2
28 0 2
29 0 2
30 0 2
31 0 2
32 0 2
33 0 2
34 0 2
35 0 2
36 0 2
37 0 2
38 0 2
39 0 2
40 0 2
41 0 2
42 0 2
43 0 2
44 0 2
45 0 2
46 0 2
47 0 2
48 0 2
49 0 2
0 1 2
1 1 2
2 1 2
3 1 2
4 1 2
5 1 2
6 1 2
7 1 2
8 1 2
9 1 2
10 1 2
11 1 2
12 1 2
13 1 2
14 1 2
15 1 2
16 1 2
17 1 2
18 1 2
19 1 2
20 1 2
21 1 2
22 1 2
23 1 2
24 1 2
25 1 2
26 1 2
27 1 2
28 1 2
29 1 2
30 1 2
31 1 2
32 1 2
33 1 2
34 1 2
35 1 2
36 1 2
37 1 2
38 1 2
39 1 2
40 1 2
41 1 2
42 1 2
43 1 2
44 1 2
45 1 2
46 1 2
47 1 2
48 1 2
49 1 2
0 2 2
1 2 2
2 2 2
3 2 2
4 2 2
5 2 2
6 2 2
7 2 2
8 2 2
9 2 2
10 2 2
11 2 2
12 2 2
13 2 2
14 2 2
15 2 2
16 2 2
17 2 2
18 2 2
19 2 2
20 2 2
21 2 2
22 2 2
23 2 2
24 2 2
25 2 2
26 2 2
27 2 2
28 2 2
29 2 2
30 2 2
31 2 2
32 2 2
33 2 2
34 2 2
35 2 2
36 2 2
37 2 2
38 2 2
39 2 2
40 2 2
41 2 2
42 2 2
43 2 2
44 2 2
45 2 2
46 2 2
47 2 2
48 2 2
49 2 2
0 3 2
1 3 2
2 3 2
3 3 2
4 3 2
5 3 2
6 3 2
7 3 2
8 3 2
9 3 2
10 3 2
11 3 2
12 3 2
13 3 2
14 3 2
15 3 2
16 3 2
17 3 2
18 3 2
19 3 2
20 3 2
21 3 2
22 3 2
23 3 2
24 3 2
25 3 2
26 3 2
27 3 2
28 3 2
29 3 2
30 3 2
31 3 2
32 3 2
33 3 2
34 3 2
35 3 2
36 3 2
37 3 2
38 3 2
39 3 2
40 3 2
41 3 2
42 3 2
43 3 2
44 3 2
45 3 2
46 3 2
47 3 2
48 3 2
49 3 2
0 4 2
1 4 2
2 4 2
3 4 2
4 4 2
5 4 2
6 4 2
7 4 2
8 4 2
9 4 2
10 4 2
11 4 2
12 4 2
13 4 2
14 4 2
15 4 2
16 4 2
17 4 2
18 4 2
19 4 2
20 4 2
21 4 2
22 4 2
23 4 2
24 4 2
25 4 2
26 4 2
27 4 2
28 4 2
29 4 2
30 4 2
31 4 2
32 4 2
33 4 2
34 4 2
35 4 2
36 4 2
37 4 2
38 4 2
39 4 2
40 4 2
41 4 2
42 4 2
43 4 2
44 4 2
45 4 2
46 4 2
47 4 2
48 4 2
49 4 2
0 5 2
1 5 2
2 5 2
3 5 2
4 5 2
5 5 2
6 5 2
7 5 2
8 5 2
9 5 2
10 5 2
11 5 2
12 5 2
13 5 2
14 5 2
15 5 2
16 5 2
17 5 2
18 5 2
19 5 2
20 5 2
21 5 2
22 5 2
23 5 2
24 5 2
25 5 2
26 5 2
27 5 2
28 5 2
29 5 2
30 5 2
31 5 2
32 5 2
33 5 2
34 5 2
35 5 2
36 5 2
37 5 2
38 5 2
39 5 2
40 5 2
41 5 2
42 5 2
43 5 2
44 5 2
45 5 2
46 5 2
47 5 2
48 5 2
49 5 2
0 6 2
1 6 2
2 6 2
3 6 2
4 6 2
5 6 2
6 6 2
7 6 2
8 6 2
9 6 2
10 6 2
11 6 2
12 6 2
13 6 2
14 6 2
15 6 2
16 6 2
17 6 2
18 6 2
19 6 2
20 6 2
21 6 2
22 6 2
23 6 2
24 6 2
25 6 2
26 6 2
27 6 2
28 6 2
29 6 2
30 6 2
31 6 2
32 6 2
33 6 2
34 6 2
35 6 2
36 6 2
37 6 2
38 6 2
39 6 2
40 6 2
41 6 2
42 6 2
43 6 2
44 6 2
45 6 2
46 6 2
47 6 2
48 6 2
49 6 2
0 7 2
1 7 2
2 7 2
3 7 2
4 7 2
5 7 2
6 7 2
7 7 2
8 7 2
9 7 2
10 7 2
11 7 2
12 7 2
13 7 2
14 7 2
15 7 2
16 7 2
17 7 2
18 7 2
19 7 2
20 7 2
21 7 2
22 7 2
23 7 2
24 7 2
25 7 2
26 7 2
27 7 2
28 7 2
29 7 2
30 7 2
31 7 2
32 7 2
33 7 2
34 7 2
35 7 2
36 7 2
37 7 2
38 7 2
39 7 2
40 7 2
41 7 2
42 7 2
43 7 2
44 7 2
45 7 2
46 7 2
47 7 2
48 7 2
49 7 2
0 8 2
1 8 2
2 8 2
3 8 2
4 8 2
5 8 2
6 8 2
7 8 2
8 8 2
9 8 2
10 8 2
11 8 2
12 8 2
13 8 2
14 8 2
15 8 2
16 8 2
17 8 2
18 8 2
19 8 2
20 8 2
21 8 2
22 8 2
23 8 2
24 8 2
25 8 2
26 8 2
27 8 2
28 8 2
29 8 2
30 8 2
31 8 2
32 8 2
33 8 2
34 8 2
35 8 2
36 8 2
37 8 2
38 8 2
39 8 2
40 8 2
41 8 2
42 8 2
43 8 2
44 8 2
45 8 2
46 8 2
47 8 2
48 8 2
49 8 2
0 9 2
1 9 2
2 9 2
3 9 2
4 9 2
[...]
POINT_DATA 15000
SCALARS sol283 float
LOOKUP_TABLE default
58.3796
58.3765
58.3735
58.3704
58.3674
58.3643
58.3613
58.3582
58.3552
58.3522
58.3491
58.3461
58.343
58.34
58.3369
58.3339
58.3308
58.3278
58.3248
58.3217
58.3187
58.3156
58.3126
58.3096
58.3065
58.3035
58.3004
58.2974
58.2944
58.2913
58.2883
58.2853
58.2822
58.2792
58.2761
58.2731
58.2701
58.267
58.264
58.261
58.2579
58.2549
58.2519
58.2488
58.2458
58.2428
58.2398
58.2367
58.2337
58.2307
58.2276
58.2246
58.2216
58.2186
58.2155
58.2125
58.2095
58.2064
58.2034
58.2004
58.1974
58.1943
58.1913
58.1883
58.1853
58.1822
58.1792
58.1762
58.1732
58.1702
58.1671
58.1641
58.1611
58.1581
58.1551
58.152
58.149
58.146
58.143
58.14
58.137
58.1339
58.1309
58.1279
58.1249
58.1219
58.1189
58.1158
58.1128
58.1098
58.1068
58.1038
58.1008
58.0978
58.0948
58.0917
58.0887
58.0857
58.0827
58.0797
58.0767
58.0737
58.0707
58.0677
58.0647
58.0617
58.0587
58.0557
58.0526
58.0496
58.0466
58.0436
58.0406
58.0376
58.0346
58.0316
58.0286
58.0256
58.0226
58.0196
58.0166
58.0136
58.0106
58.0076
58.0046
58.0016
57.9986
57.9956
57.9926
57.9896
57.9866
57.9836
57.9806
57.9776
57.9746
57.9716
57.9687
57.9657
57.9627
57.9597
57.9567
57.9537
57.9507
57.9477
57.9447
57.9417
57.9387
57.9357
57.9327
57.9298
57.9268
57.9238
57.9208
57.9178
57.9148
57.9118
57.9088
57.9059
57.9029
57.8999
57.8969
57.8939
57.8909
57.888
57.885
57.882
57.879
57.876
57.873
57.8701
57.8671
57.8641
57.8611
57.8581
57.8552
57.8522
57.8492
57.8462
57.8432
57.8403
57.8373
57.8343
57.8313
57.8284
57.8254
57.8224
57.8194
57.8165
57.8135
57.8105
57.8075
57.8046
57.8016
57.7986
57.7957
57.7927
57.7897
57.7868
57.7838
57.7808
57.7778
57.7749
57.7719
57.7689
57.766
57.763
57.76
57.7571
57.7541
57.7511
57.7482
57.7452
57.7422
57.7393
57.7363
57.7334
57.7304
57.7274
57.7245
57.7215
57.7186
57.7156
57.7126
57.7097
57.7067
57.7038
57.7008
57.6978
57.6949
57.6919
57.689
57.686
57.6831
57.6801
57.6771
57.6742
57.6712
57.6683
57.6653
57.6624
57.6594
57.6565
57.6535
57.6506
57.6476
57.6447
57.6417
57.6388
57.6358
57.6329
57.6299
57.627
57.624
57.6211
57.6181
57.6152
57.6122
57.6093
57.6063
57.6034
57.6004
57.5975
57.5946
57.5916
57.5887
57.5857
57.5828
57.5798
57.5769
57.574
57.571
57.5681
57.5651
57.5622
57.5593
57.5563
57.5534
57.5504
57.5475
57.5446
57.5416
57.5387
57.5358
57.5328
57.5299
57.527
57.524
57.5211
57.5181
57.5152
57.5123
57.5093
57.5064
57.5035
57.5006
57.4976
57.4947
57.4918
57.4888
57.4859
57.483
57.48
57.4771
57.4742
57.4713
57.4683
57.4654
57.4625
57.4596
57.4566
57.4537
57.4508
57.4479
57.4449
57.442
57.4391
57.4362
57.4332
57.4303
57.4274
57.4245
57.4216
57.4186
57.4157
57.4128
57.4099
57.407
57.404
57.4011
57.3982
57.3953
57.3924
57.3895
57.3865
57.3836
57.3807
57.3778
57.3749
57.372
57.369
57.3661
57.3632
57.3603
57.3574
57.3545
57.3516
57.3487
57.3458
57.3428
57.3399
57.337
57.3341
57.3312
57.3283
57.3254
57.3225
57.3196
57.3167
57.3138
57.3109
57.308
57.305
57.3021
57.2992
57.2963
57.2934
57.2905
57.2876
57.2847
57.2818
57.2789
57.276
57.2731
57.2702
57.2673
57.2644
57.2615
57.2586
57.2557
57.2528
57.2499
57.247
57.2441
57.2412
57.2383
57.2354
57.2326
57.2297
57.2268
57.2239
57.221
57.2181
57.2152
57.2123
57.2094
57.2065
57.2036
57.2007
57.1978
57.195
57.1921
57.1892
57.1863
57.1834
57.1805
57.1776
57.1747
57.1718
57.169
57.1661
57.1632
57.1603
57.1574
57.1545
57.1516
57.1488
57.1459
57.143
57.1401
57.1372
57.1344
57.1315
57.1286
57.1257
57.1228
57.1199
57.1171
57.1142
57.1113
57.1084
57.1056
57.1027
57.0998
57.0969
57.094
57.0912
57.0883
57.0854
57.0825
57.0797
57.0768
57.0739
57.0711
57.0682
57.0653
57.0624
57.0596
57.0567
57.0538
57.051
57.0481
57.0452
57.0423
57.0395
57.0366
57.0337
57.0309
57.028
57.0251
57.0223
57.0194
57.0165
57.0137
57.0108
57.0079
57.0051
57.0022
56.9993
56.9965
56.9936
56.9908
56.9879
56.985
56.9822
56.9793
56.9765
56.9736
56.9707
56.9679
56.965
56.9622
56.9593
56.9564
56.9536
56.9507
56.9479
56.945
56.9422
56.9393
56.9365
56.9336
56.9307
56.9279
56.925
56.9222
56.9193
56.9165
56.9136
56.9108
56.9079
56.9051
56.9022
56.8994
56.8965
56.8937
56.8908
56.888
56.8851
56.8823
56.8794
56.8766
56.8737
56.8709
56.8681
56.8652
56.8624
56.8595
56.8567
56.8538
56.851
56.8481
56.8453
56.8425
56.8396
56.8368
56.8339
56.8311
56.8283
56.8254
56.8226
56.8197
56.8169
56.8141
56.8112
56.8084
56.8056
56.8027
56.7999
56.797
56.7942
56.7914
56.7885
56.7857
56.7829
56.78
56.7772
56.7744
56.7715
56.7687
56.7659
56.763
56.7602
56.7574
56.7546
56.7517
56.7489
56.7461
56.7432
56.7404
56.7376
56.7348
56.7319
56.7291
56.7263
56.7235
56.7206
56.7178
56.715
56.7122
56.7093
56.7065
56.7037
56.7009
56.698
56.6952
56.6924
56.6896
56.6868
56.6839
56.6811
56.6783
56.6755
56.6727
56.6698
56.667
56.6642
56.6614
56.6586
56.6558
56.6529
56.6501
56.6473
56.6445
56.6417
56.6389
56.636
56.6332
56.6304
56.6276
56.6248
56.622
56.6192
56.6164
56.6136
56.6107
56.6079
56.6051
56.6023
56.5995
56.5967
56.5939
56.5911
56.5883
56.5855
56.5827
56.5799
56.5771
56.5742
56.5714
56.5686
56.5658
56.563
56.5602
56.5574
56.5546
56.5518
56.549
56.5462
56.5434
56.5406
56.5378
56.535
56.5322
56.5294
56.5266
56.5238
56.521
56.5182
56.5154
56.5126
56.5098
56.507
56.5042
56.5014
56.4987
56.4959
56.4931
56.4903
56.4875
56.4847
56.4819
56.4791
56.4763
56.4735
56.4707
56.4679
56.4651
56.4624
56.4596
56.4568
56.454
56.4512
56.4484
56.4456
56.4428
56.4401
56.4373
56.4345
56.4317
56.4289
56.4261
56.4233
56.4206
56.4178
56.415
56.4122
56.4094
56.4066
56.4039
56.4011
56.3983
56.3955
56.3927
56.39
56.3872
56.3844
56.3816
56.3788
56.3761
56.3733
56.3705
56.3677
56.365
56.3622
56.3594
56.3566
56.3539
56.3511
56.3483
56.3455
56.3428
56.34
56.3372
56.3344
56.3317
56.3289
56.3261
56.3234
56.3206
56.3178
56.3151
56.3123
56.3095
56.3067
56.304
56.3012
56.2984
56.2957
56.2929
56.2901
56.2874
56.2846
56.2819
56.2791
56.2763
56.2736
56.2708
56.268
56.2653
56.2625
56.2597
56.257
56.2542
56.2515
56.2487
56.2459
56.2432
56.2404
56.2377
56.2349
56.2322
56.2294
56.2266
56.2239
56.2211
56.2184
56.2156
56.2129
56.2101
56.2073
56.2046
56.2018
56.1991
56.1963
56.1936
56.1908
56.1881
56.1853
56.1826
56.1798
56.1771
56.1743
56.1716
56.1688
56.1661
56.1633
56.1606
56.1578
56.1551
56.1523
56.1496
56.1468
56.1441
56.1414
56.1386
56.1359
56.1331
56.1304
56.1276
56.1249
56.1222
56.1194
56.1167
56.1139
56.1112
56.1084
56.1057
56.103
56.1002
56.0975
56.0947
56.092
56.0893
56.0865
56.0838
56.0811
56.0783
56.0756
56.0729
56.0701
56.0674
56.0646
56.0619
56.0592
56.0564
56.0537
56.051
56.0482
56.0455
56.0428
56.0401
56.0373
56.0346
56.0319
56.0291
56.0264
56.0237
56.0209
56.0182
56.0155
56.0128
56.01
56.0073
56.0046
56.0019
55.9991
55.9964
55.9937
55.991
55.9882
55.9855
55.9828
55.9801
55.9773
55.9746
55.9719
55.9692
55.9665
55.9637
55.961
55.9583
55.9556
55.9529
55.9501
55.9474
55.9447
55.942
55.9393
55.9365
55.9338
55.9311
55.9284
55.9257
55.923
55.9203
55.9175
55.9148
55.9121
55.9094
55.9067
55.904
55.9013
55.8986
55.8958
55.8931
55.8904
55.8877
55.885
55.8823
55.8796
55.8769
55.8742
55.8715
55.8688
55.866
55.8633
55.8606
55.8579
55.8552
55.8525
55.8498
55.8471
55.8444
55.8417
55.839
55.8363
55.8336
55.8309
55.8282
55.8255
55.8228
55.8201
55.8174
55.8147
55.812
55.8093
55.8066
55.8039
55.8012
55.7985
55.7958
55.7931
55.7904
55.7877
55.785
55.7823
55.7796
55.7769
55.7742
55.7715
55.7689
55.7662
55.7635
55.7608
55.7581
55.7554
55.7527
55.75
55.7473
55.7446
55.7419
55.7393
55.7366
55.7339
55.7312
55.7285
55.7258
55.7231
55.7204
55.7178
55.7151
55.7124
55.7097
55.707
55.7043
55.7016
55.699
55.6963
55.6936
55.6909
55.6882
55.6856
55.6829
55.6802
55.6775
55.6748
55.6721
55.6695
55.6668
55.6641
55.6614
55.6588
55.6561
55.6534
55.6507
55.648
55.6454
55.6427
55.64
55.6373
55.6347
55.632
55.6293
55.6267
55.624
55.6213
55.6186
55.616
55.6133
55.6106
55.6079
55.6053
55.6026
55.5999
55.5973
55.5946
55.5919
55.5893
55.5866
55.5839
55.5813
55.5786
55.5759
55.5733
55.5706
55.5679
55.5653
55.5626
55.5599
55.5573
55.5546
55.552
55.5493
55.5466
55.544
55.5413
55.5386
55.536
55.5333
55.5307
55.528
55.5253
55.5227
55.52
55.5174
55.5147
55.5121
55.5094
55.5067
55.5041
55.5014
55.4988
55.4961
55.4935
55.4908
55.4882
55.4855
55.4829
55.4802
55.4775
55.4749
55.4722
55.4696
55.4669
55.4643
55.4616
55.459
55.4563
55.4537
55.451
55.4484
55.4458
55.4431
55.4405
55.4378
55.4352
55.4325
55.4299
55.4272
55.4246
55.4219
55.4193
55.4167
55.414
55.4114
55.4087
55.4061
55.4034
55.4008
55.3982
55.3955
55.3929
55.3902
55.3876
55.385
55.3823
55.3797
55.377
55.3744
55.3718
55.3691
55.3665
55.3639
55.3612
55.3586
55.356
55.3533
55.3507
55.348
55.3454
55.3428
55.3401
55.3375
55.3349
55.3323
55.3296
55.327
55.3244
55.3217
55.3191
55.3165
55.3138
55.3112
55.3086
55.306
55.3033
55.3007
55.2981
55.2954
55.2928
55.2902
55.2876
55.2849
55.2823
55.2797
55.2771
55.2744
55.2718
55.2692
55.2666
55.264
55.2613
55.2587
55.2561
55.2535
55.2509
55.2482
55.2456
55.243
55.2404
55.2378
55.2351
55.2325
55.2299
55.2273
55.2247
55.2221
55.2194
55.2168
55.2142
55.2116
55.209
55.2064
55.2038
55.2011
55.1985
55.1959
55.1933
55.1907
55.1881
55.1855
55.1829
55.1803
55.1776
55.175
55.1724
55.1698
55.1672
55.1646
55.162
55.1594
55.1568
55.1542
55.1516
55.149
55.1464
55.1438
55.1411
55.1385
55.1359
55.1333
55.1307
55.1281
55.1255
55.1229
55.1203
55.1177
55.1151
55.1125
55.1099
55.1073
55.1047
55.1021
55.0995
55.0969
55.0943
55.0917
55.0891
55.0865
55.0839
55.0813
55.0787
55.0762
55.0736
55.071
55.0684
55.0658
55.0632
55.0606
55.058
55.0554
55.0528
55.0502
55.0476
55.045
55.0424
55.0399
55.0373
55.0347
55.0321
55.0295
55.0269
55.0243
55.0217
55.0192
55.0166
55.014
55.0114
55.0088
55.0062
55.0036
55.0011
54.9985
54.9959
54.9933
54.9907
54.9881
54.9856
54.983
54.9804
54.9778
54.9752
54.9726
54.9701
54.9675
54.9649
54.9623
54.9598
54.9572
54.9546
54.952
54.9494
54.9469
54.9443
54.9417
54.9391
54.9366
54.934
54.9314
54.9288
54.9263
54.9237
54.9211
54.9185
54.916
54.9134
54.9108
54.9083
54.9057
54.9031
54.9005
54.898
54.8954
54.8928
54.8903
54.8877
54.8851
54.8826
54.88
54.8774
54.8749
54.8723
54.8697
54.8672
54.8646
54.862
54.8595
54.8569
54.8543
54.8518
54.8492
54.8467
54.8441
54.8415
54.839
54.8364
54.8339
54.8313
54.8287
54.8262
54.8236
54.8211
54.8185
54.8159
54.8134
54.8108
54.8083
54.8057
54.8032
54.8006
54.798
54.7955
54.7929
54.7904
54.7878
54.7853
54.7827
54.7802
54.7776
54.7751
54.7725
54.77
54.7674
54.7649
54.7623
54.7598
54.7572
54.7547
54.7521
54.7496
54.747
54.7445
54.7419
54.7394
54.7368
54.7343
54.7317
54.7292
54.7266
54.7241
54.7216
54.719
54.7165
54.7139
54.7114
54.7088
54.7063
54.7037
54.7012
54.6987
54.6961
54.6936
54.691
54.6885
54.686
54.6834
54.6809
54.6784
54.6758
54.6733
54.6707
54.6682
54.6657
54.6631
54.6606
54.6581
54.6555
54.653
54.6505
54.6479
54.6454
54.6429
54.6403
54.6378
54.6353
54.6327
54.6302
54.6277
54.6251
54.6226
54.6201
54.6175
54.615
54.6125
54.61
54.6074
54.6049
54.6024
54.5999
54.5973
54.5948
54.5923
54.5897
54.5872
54.5847
54.5822
54.5796
54.5771
54.5746
54.5721
54.5696
54.567
54.5645
54.562
54.5595
54.557
54.5544
54.5519
54.5494
54.5469
54.5444
54.5418
54.5393
54.5368
54.5343
54.5318
54.5292
54.5267
54.5242
54.5217
54.5192
54.5167
54.5142
54.5116
54.5091
54.5066
54.5041
54.5016
54.4991
54.4966
54.4941
54.4915
54.489
54.4865
54.484
54.4815
54.479
54.4765
54.474
54.4715
54.469
54.4665
54.4639
54.4614
54.4589
54.4564
54.4539
54.4514
54.4489
54.4464
54.4439
54.4414
54.4389
54.4364
54.4339
54.4314
54.4289
54.4264
54.4239
54.4214
54.4189
54.4164
54.4139
54.4114
54.4089
54.4064
54.4039
54.4014
54.3989
54.3964
54.3939
54.3914
54.3889
54.3864
54.3839
54.3814
54.3789
54.3764
54.3739
54.3714
54.3689
54.3664
54.364
54.3615
54.359
54.3565
54.354
54.3515
54.349
54.3465
54.344
54.3415
54.3391
54.3366
54.3341
54.3316
54.3291
54.3266
54.3241
54.3216
54.3192
54.3167
54.3142
54.3117
54.3092
54.3067
54.3042
54.3018
54.2993
54.2968
54.2943
54.2918
54.2893
54.2869
54.2844
54.2819
54.2794
54.2769
54.2745
54.272
54.2695
54.267
54.2646
54.2621
54.2596
54.2571
54.2546
54.2522
54.2497
54.2472
54.2447
54.2423
54.2398
54.2373
54.2348
54.2324
54.2299
54.2274
54.2249
54.2225
54.22
54.2175
54.2151
54.2126
54.2101
54.2077
54.2052
54.2027
54.2002
54.1978
54.1953
54.1928
54.1904
54.1879
54.1854
54.183
54.1805
54.178
54.1756
54.1731
54.1707
54.1682
54.1657
54.1633
54.1608
54.1583
54.1559
54.1534
54.1509
54.1485
54.146
54.1436
54.1411
54.1386
54.1362
54.1337
54.1313
54.1288
54.1264
54.1239
54.1214
54.119
54.1165
54.1141
54.1116
54.1092
54.1067
54.1042
54.1018
54.0993
54.0969
54.0944
54.092
54.0895
54.0871
54.0846
54.0822
54.0797
54.0773
54.0748
54.0724
54.0699
54.0675
54.065
54.0626
54.0601
54.0577
54.0552
54.0528
54.0503
54.0479
54.0454
54.043
54.0406
54.0381
54.0357
54.0332
54.0308
54.0283
54.0259
54.0234
54.021
54.0186
54.0161
54.0137
54.0112
54.0088
54.0064
54.0039
54.0015
53.999
53.9966
53.9942
53.9917
53.9893
53.9868
53.9844
53.982
53.9795
53.9771
53.9747
53.9722
53.9698
53.9674
53.9649
53.9625
53.9601
53.9576
53.9552
53.9528
53.9503
53.9479
53.9455
53.943
53.9406
53.9382
53.9357
53.9333
53.9309
53.9285
53.926
53.9236
53.9212
53.9187
53.9163
53.9139
53.9115
53.909
53.9066
53.9042
53.9018
53.8993
53.8969
53.8945
53.8921
53.8896
53.8872
53.8848
53.8824
53.88
53.8775
53.8751
53.8727
53.8703
53.8679
53.8654
53.863
53.8606
53.8582
53.8558
53.8533
53.8509
53.8485
53.8461
53.8437
53.8413
53.8388
53.8364
53.834
53.8316
53.8292
53.8268
53.8244
53.8219
53.8195
53.8171
53.8147
53.8123
53.8099
53.8075
53.8051
53.8027
53.8002
53.7978
53.7954
53.793
53.7906
53.7882
53.7858
53.7834
53.781
53.7786
53.7762
53.7738
53.7714
53.769
53.7665
53.7641
53.7617
53.7593
53.7569
53.7545
53.7521
53.7497
53.7473
53.7449
53.7425
53.7401
53.7377
53.7353
53.7329
53.7305
53.7281
53.7257
53.7233
53.7209
53.7185
53.7161
53.7137
53.7113
53.7089
53.7065
53.7041
53.7018
53.6994
53.697
53.6946
53.6922
53.6898
53.6874
53.685
53.6826
53.6802
53.6778
53.6754
53.673
53.6706
53.6683
53.6659
53.6635
53.6611
53.6587
53.6563
53.6539
53.6515
53.6491
53.6468
53.6444
53.642
53.6396
53.6372
53.6348
53.6324
53.6301
53.6277
53.6253
53.6229
53.6205
53.6181
53.6158
53.6134
53.611
53.6086
53.6062
53.6039
53.6015
53.5991
53.5967
53.5943
53.592
53.5896
53.5872
53.5848
53.5824
53.5801
53.5777
53.5753
53.5729
53.5706
53.5682
53.5658
53.5634
53.5611
53.5587
53.5563
53.5539
53.5516
53.5492
53.5468
53.5445
53.5421
53.5397
53.5373
53.535
53.5326
53.5302
53.5279
53.5255
53.5231
53.5208
53.5184
53.516
53.5137
53.5113
53.5089
53.5066
53.5042
53.5018
53.4995
53.4971
53.4947
53.4924
53.49
53.4876
53.4853
53.4829
53.4805
53.4782
53.4758
53.4735
53.4711
53.4687
53.4664
53.464
53.4617
53.4593
53.4569
53.4546
53.4522
53.4499
53.4475
53.4452
53.4428
53.4404
53.4381
53.4357
53.4334
53.431
53.4287
53.4263
53.424
53.4216
53.4193
53.4169
53.4146
53.4122
53.4098
53.4075
53.4051
53.4028
53.4004
53.3981
53.3957
53.3934
53.391
53.3887
53.3864
53.384
53.3817
53.3793
53.377
53.3746
53.3723
53.3699
53.3676
53.3652
53.3629
53.3605
53.3582
53.3559
53.3535
53.3512
53.3488
53.3465
53.3441
53.3418
53.3395
53.3371
53.3348
53.3324
53.3301
53.3278
53.3254
53.3231
53.3207
53.3184
53.3161
53.3137
53.3114
53.3091
53.3067
53.3044
53.3021
53.2997
53.2974
53.295
53.2927
53.2904
53.288
53.2857
53.2834
53.2811
53.2787
53.2764
53.2741
53.2717
53.2694
53.2671
53.2647
53.2624
53.2601
53.2577
53.2554
53.2531
53.2508
53.2484
53.2461
53.2438
53.2415
53.2391
53.2368
53.2345
53.2322
53.2298
53.2275
53.2252
53.2229
53.2205
53.2182
53.2159
53.2136
53.2112
53.2089
53.2066
53.2043
53.202
53.1996
53.1973
53.195
53.1927
53.1904
53.188
53.1857
53.1834
53.1811
53.1788
53.1765
53.1741
53.1718
53.1695
53.1672
53.1649
53.1626
53.1603
53.1579
53.1556
53.1533
53.151
53.1487
53.1464
53.1441
53.1418
53.1394
53.1371
53.1348
53.1325
53.1302
53.1279
53.1256
53.1233
53.121
53.1187
53.1164
53.1141
53.1117
53.1094
53.1071
53.1048
53.1025
53.1002
53.0979
53.0956
53.0933
53.091
53.0887
53.0864
53.0841
53.0818
53.0795
53.0772
53.0749
53.0726
53.0703
53.068
53.0657
53.0634
53.0611
53.0588
53.0565
53.0542
53.0519
53.0496
53.0473
53.045
53.0427
53.0404
53.0381
53.0358
53.0335
53.0312
53.0289
53.0266
53.0244
53.0221
53.0198
53.0175
53.0152
53.0129
53.0106
53.0083
53.006
53.0037
53.0014
52.9991
52.9969
52.9946
52.9923
52.99
52.9877
52.9854
52.9831
52.9808
52.9786
52.9763
52.974
52.9717
52.9694
52.9671
52.9648
52.9626
52.9603
52.958
52.9557
52.9534
52.9511
52.9489
52.9466
52.9443
52.942
52.9397
52.9375
52.9352
52.9329
52.9306
52.9283
52.9261
52.9238
52.9215
52.9192
52.917
52.9147
52.9124
52.9101
52.9078
52.9056
52.9033
52.901
52.8988
52.8965
52.8942
52.8919
52.8897
52.8874
52.8851
52.8828
52.8806
52.8783
52.876
52.8738
52.8715
52.8692
52.8669
52.8647
52.8624
52.8601
52.8579
52.8556
52.8533
52.8511
52.8488
52.8465
52.8443
52.842
52.8397
52.8375
52.8352
52.8329
52.8307
52.8284
52.8262
52.8239
52.8216
52.8194
52.8171
52.8148
52.8126
52.8103
52.8081
52.8058
52.8035
52.8013
52.799
52.7968
52.7945
52.7923
52.79
52.7877
52.7855
52.7832
52.781
52.7787
52.7765
52.7742
52.7719
52.7697
52.7674
52.7652
52.7629
52.7607
52.7584
52.7562
52.7539
52.7517
52.7494
52.7472
52.7449
52.7427
52.7404
52.7382
52.7359
52.7337
52.7314
52.7292
52.7269
52.7247
52.7224
52.7202
52.7179
52.7157
52.7134
52.7112
52.709
52.7067
52.7045
52.7022
52.7
52.6977
52.6955
52.6932
52.691
52.6888
52.6865
52.6843
52.682
52.6798
52.6776
52.6753
52.6731
52.6708
52.6686
52.6664
52.6641
52.6619
52.6596
52.6574
52.6552
52.6529
52.6507
52.6485
52.6462
52.644
52.6418
52.6395
52.6373
52.6351
52.6328
52.6306
52.6284
52.6261
52.6239
52.6217
52.6194
52.6172
52.615
52.6127
52.6105
52.6083
52.606
52.6038
52.6016
52.5994
52.5971
52.5949
52.5927
52.5905
52.5882
52.586
52.5838
52.5815
52.5793
52.5771
52.5749
52.5727
52.5704
52.5682
52.566
52.5638
52.5615
52.5593
52.5571
52.5549
52.5526
52.5504
52.5482
52.546
52.5438
52.5415
52.5393
52.5371
52.5349
52.5327
52.5305
52.5282
52.526
52.5238
52.5216
52.5194
52.5172
52.5149
52.5127
52.5105
52.5083
52.5061
52.5039
52.5017
52.4994
52.4972
52.495
52.4928
52.4906
52.4884
52.4862
52.484
52.4818
52.4795
52.4773
52.4751
52.4729
52.4707
52.4685
52.4663
52.4641
52.4619
52.4597
52.4575
52.4553
52.4531
52.4509
52.4486
52.4464
52.4442
52.442
52.4398
52.4376
52.4354
52.4332
52.431
52.4288
52.4266
52.4244
52.4222
52.42
52.4178
52.4156
52.4134
52.4112
52.409
52.4068
52.4046
52.4024
52.4002
52.398
52.3958
52.3936
52.3914
52.3892
52.3871
52.3849
52.3827
52.3805
52.3783
52.3761
52.3739
52.3717
52.3695
52.3673
52.3651
52.3629
52.3607
52.3585
52.3564
52.3542
52.352
52.3498
52.3476
52.3454
52.3432
52.341
52.3388
52.3367
52.3345
52.3323
52.3301
52.3279
52.3257
52.3235
52.3214
52.3192
52.317
52.3148
52.3126
52.3104
52.3082
52.3061
52.3039
52.3017
52.2995
52.2973
52.2952
52.293
52.2908
52.2886
52.2864
52.2843
52.2821
52.2799
52.2777
52.2755
52.2734
52.2712
52.269
52.2668
52.2647
52.2625
52.2603
52.2581
52.256
52.2538
52.2516
52.2494
52.2473
52.2451
52.2429
52.2407
52.2386
52.2364
52.2342
52.2321
52.2299
52.2277
52.2255
52.2234
52.2212
52.219
52.2169
52.2147
52.2125
52.2104
52.2082
52.206
52.2039
52.2017
52.1995
52.1974
52.1952
52.193
52.1909
52.1887
52.1865
52.1844
52.1822
52.1801
52.1779
52.1757
52.1736
52.1714
52.1692
52.1671
52.1649
52.1628
52.1606
52.1584
52.1563
52.1541
52.152
52.1498
52.1477
52.1455
52.1433
52.1412
52.139
52.1369
52.1347
52.1326
52.1304
52.1282
52.1261
52.1239
52.1218
52.1196
52.1175
52.1153
52.1132
52.111
52.1089
52.1067
52.1046
52.1024
52.1003
52.0981
52.096
52.0938
52.0917
52.0895
52.0874
52.0852
52.0831
52.0809
52.0788
52.0766
52.0745
52.0723
52.0702
52.068
52.0659
52.0638
52.0616
52.0595
52.0573
52.0552
52.053
52.0509
52.0488
52.0466
52.0445
52.0423
52.0402
52.0381
52.0359
52.0338
52.0316
52.0295
52.0274
52.0252
52.0231
52.0209
52.0188
52.0167
52.0145
52.0124
52.0103
52.0081
52.006
52.0038
52.0017
51.9996
51.9974
51.9953
51.9932
51.991
51.9889
51.9868
51.9846
51.9825
51.9804
51.9783
51.9761
51.974
51.9719
51.9697
51.9676
51.9655
51.9633
51.9612
51.9591
51.957
51.9548
51.9527
51.9506
51.9485
51.9463
51.9442
51.9421
51.94
51.9378
51.9357
51.9336
51.9315
51.9293
51.9272
51.9251
51.923
51.9208
51.9187
51.9166
51.9145
51.9124
51.9102
51.9081
51.906
51.9039
51.9018
51.8996
51.8975
51.8954
51.8933