# vtk DataFile Version 2.0
vtk output
ASCII
DATASET STRUCTURED_GRID
DIMENSIONS 50 10 30
POINTS 15000 float
0 0 0
1 0 0
2 0 0
3 0 0
4 0 0
5 0 0
6 0 0
7 0 0
8 0 0
9 0 0
10 0 0
11 0 0
12 0 0
13 0 0
14 0 0
15 0 0
16 0 0
17 0 0
18 0 0
19 0 0
20 0 0
21 0 0
22 0 0
23 0 0
24 0 0
25 0 0
26 0 0
27 0 0
28 0 0
29 0 0
30 0 0
31 0 0
32 0 0
33 0 0
34 0 0
35 0 0
36 0 0
37 0 0
38 0 0
39 0 0
40 0 0
41 0 0
42 0 0
43 0 0
44 0 0
45 0 0
46 0 0
47 0 0
48 0 0
49 0 0
0 1 0
1 1 0
2 1 0
3 1 0
4 1 0
5 1 0
6 1 0
7 1 0
8 1 0
9 1 0
10 1 0
11 1 0
12 1 0
13 1 0
14 1 0
15 1 0
16 1 0
17 1 0
18 1 0
19 1 0
20 1 0
21 1 0
22 1 0
23 1 0
24 1 0
25 1 0
26 1 0
27 1 0
28 1 0
29 1 0
30 1 0
31 1 0
32 1 0
33 1 0
34 1 0
35 1 0
36 1 0
37 1 0
38 1 0
39 1 0
40 1 0
41 1 0
42 1 0
43 1 0
44 1 0
45 1 0
46 1 0
47 1 0
48 1 0
49 1 0
0 2 0
1 2 0
2 2 0
3 2 0
4 2 0
5 2 0
6 2 0
7 2 0
8 2 0
9 2 0
10 2 0
11 2 0
12 2 0
13 2 0
14 2 0
15 2 0
16 2 0
17 2 0
18 2 0
19 2 0
20 2 0
21 2 0
22 2 0
23 2 0
24 2 0
25 2 0
26 2 0
27 2 0
28 2 0
29 2 0
30 2 0
31 2 0
32 2 0
33 2 0
34 2 0
35 2 0
36 2 0
37 2 0
38 2 0
39 2 0
40 2 0
41 2 0
42 2 0
43 2 0
44 2 0
45 2 0
46 2 0
47 2 0
48 2 0
49 2 0
0 3 0
1 3 0
2 3 0
3 3 0
4 3 0
5 3 0
6 3 0
7 3 0
8 3 0
9 3 0
10 3 0
11 3 0
12 3 0
13 3 0
14 3 0
15 3 0
16 3 0
17 3 0
18 3 0
19 3 0
20 3 0
21 3 0
22 3 0
23 3 0
24 3 0
25 3 0
26 3 0
27 3 0
28 3 0
29 3 0
30 3 0
31 3 0
32 3 0
33 3 0
34 3 0
35 3 0
36 3 0
37 3 0
38 3 0
39 3 0
40 3 0
41 3 0
42 3 0
43 3 0
44 3 0
45 3 0
46 3 0
47 3 0
48 3 0
49 3 0
0 4 0
1 4 0
2 4 0
3 4 0
4 4 0
5 4 0
6 4 0
7 4 0
8 4 0
9 4 0
10 4 0
11 4 0
12 4 0
13 4 0
14 4 0
15 4 0
16 4 0
17 4 0
18 4 0
19 4 0
20 4 0
21 4 0
22 4 0
23 4 0
24 4 0
25 4 0
26 4 0
27 4 0
28 4 0
29 4 0
30 4 0
31 4 0
32 4 0
33 4 0
34 4 0
35 4 0
36 4 0
37 4 0
38 4 0
39 4 0
40 4 0
41 4 0
42 4 0
43 4 0
44 4 0
45 4 0
46 4 0
47 4 0
48 4 0
49 4 0
0 5 0
1 5 0
2 5 0
3 5 0
4 5 0
5 5 0
6 5 0
7 5 0
8 5 0
9 5 0
10 5 0
11 5 0
12 5 0
13 5 0
14 5 0
15 5 0
16 5 0
17 5 0
18 5 0
19 5 0
20 5 0
21 5 0
22 5 0
23 5 0
24 5 0
25 5 0
26 5 0
27 5 0
28 5 0
29 5 0
30 5 0
31 5 0
32 5 0
33 5 0
34 5 0
35 5 0
36 5 0
37 5 0
38 5 0
39 5 0
40 5 0
41 5 0
42 5 0
43 5 0
44 5 0
45 5 0
46 5 0
47 5 0
48 5 0
49 5 0
0 6 0
1 6 0
2 6 0
3 6 0
4 6 0
5 6 0
6 6 0
7 6 0
8 6 0
9 6 0
10 6 0
11 6 0
12 6 0
13 6 0
14 6 0
15 6 0
16 6 0
17 6 0
18 6 0
19 6 0
20 6 0
21 6 0
22 6 0
23 6 0
24 6 0
25 6 0
26 6 0
27 6 0
28 6 0
29 6 0
30 6 0
31 6 0
32 6 0
33 6 0
34 6 0
35 6 0
36 6 0
37 6 0
38 6 0
39 6 0
40 6 0
41 6 0
42 6 0
43 6 0
44 6 0
45 6 0
46 6 0
47 6 0
48 6 0
49 6 0
0 7 0
1 7 0
2 7 0
3 7 0
4 7 0
5 7 0
6 7 0
7 7 0
8 7 0
9 7 0
10 7 0
11 7 0
12 7 0
13 7 0
14 7 0
15 7 0
16 7 0
17 7 0
18 7 0
19 7 0
20 7 0
21 7 0
22 7 0
23 7 0
24 7 0
25 7 0
26 7 0
27 7 0
28 7 0
29 7 0
30 7 0
31 7 0
32 7 0
33 7 0
34 7 0
35 7 0
36 7 0
37 7 0
38 7 0
39 7 0
40 7 0
41 7 0
42 7 0
43 7 0
44 7 0
45 7 0
46 7 0
47 7 0
48 7 0
49 7 0
0 8 0
1 8 0
2 8 0
3 8 0
4 8 0
5 8 0
6 8 0
7 8 0
8 8 0
9 8 0
10 8 0
11 8 0
12 8 0
13 8 0
14 8 0
15 8 0
16 8 0
17 8 0
18 8 0
19 8 0
20 8 0
21 8 0
22 8 0
23 8 0
24 8 0
25 8 0
26 8 0
27 8 0
28 8 0
29 8 0
30 8 0
31 8 0
32 8 0
33 8 0
34 8 0
35 8 0
36 8 0
37 8 0
38 8 0
39 8 0
40 8 0
41 8 0
42 8 0
43 8 0
44 8 0
45 8 0
46 8 0
47 8 0
48 8 0
49 8 0
0 9 0
1 9 0
2 9 0
3 9 0
4 9 0
5 9 0
6 9 0
7 9 0
8 9 0
9 9 0
10 9 0
11 9 0
12 9 0
13 9 0
14 9 0
15 9 0
16 9 0
17 9 0
18 9 0
19 9 0
20 9 0
21 9 0
22 9 0
23 9 0
24 9 0
25 9 0
26 9 0
27 9 0
28 9 0
29 9 0
30 9 0
31 9 0
32 9 0
33 9 0
34 9 0
35 9 0
36 9 0
37 9 0
38 9 0
39 9 0
40 9 0
41 9 0
42 9 0
43 9 0
44 9 0
45 9 0
46 9 0
47 9 0
48 9 0
49 9 0
0 0 1
1 0 1
2 0 1
3 0 1
4 0 1
5 0 1
6 0 1
7 0 1
8 0 1
9 0 1
10 0 1
11 0 1
12 0 1
13 0 1
14 0 1
15 0 1
16 0 1
17 0 1
18 0 1
19 0 1
20 0 1
21 0 1
22 0 1
23 0 1
24 0 1
25 0 1
26 0 1
27 0 1
28 0 1
29 0 1
30 0 1
31 0 1
32 0 1
33 0 1
34 0 1
35 0 1
36 0 1
37 0 1
38 0 1
39 0 1
40 0 1
41 0 1
42 0 1
43 0 1
44 0 1
45 0 1
46 0 1
47 0 1
48 0 1
49 0 1
0 1 1
1 1 1
2 1 1
3 1 1
4 1 1
5 1 1
6 1 1
7 1 1
8 1 1
9 1 1
10 1 1
11 1 1
12 1 1
13 1 1
14 1 1
15 1 1
16 1 1
17 1 1
18 1 1
19 1 1
20 1 1
21 1 1
22 1 1
23 1 1
24 1 1
25 1 1
26 1 1
27 1 1
28 1 1
29 1 1
30 1 1
31 1 1
32 1 1
33 1 1
34 1 1
35 1 1
36 1 1
37 1 1
38 1 1
39 1 1
40 1 1
41 1 1
42 1 1
43 1 1
44 1 1
45 1 1
46 1 1
47 1 1
48 1 1
49 1 1
0 2 1
1 2 1
2 2 1
3 2 1
4 2 1
5 2 1
6 2 1
7 2 1
8 2 1
9 2 1
10 2 1
11 2 1
12 2 1
13 2 1
14 2 1
15 2 1
16 2 1
17 2 1
18 2 1
19 2 1
20 2 1
21 2 1
22 2 1
23 2 1
24 2 1
25 2 1
26 2 1
27 2 1
28 2 1
29 2 1
30 2 1
31 2 1
32 2 1
33 2 1
34 2 1
35 2 1
36 2 1
37 2 1
38 2 1
39 2 1
40 2 1
41 2 1
42 2 1
43 2 1
44 2 1
45 2 1
46 2 1
47 2 1
48 2 1
49 2 1
0 3 1
1 3 1
2 3 1
3 3 1
4 3 1
5 3 1
6 3 1
7 3 1
8 3 1
9 3 1
10 3 1
11 3 1
12 3 1
13 3 1
14 3 1
15 3 1
16 3 1
17 3 1
18 3 1
19 3 1
20 3 1
21 3 1
22 3 1
23 3 1
24 3 1
25 3 1
26 3 1
27 3 1
28 3 1
29 3 1
30 3 1
31 3 1
32 3 1
33 3 1
34 3 1
35 3 1
36 3 1
37 3 1
38 3 1
39 3 1
40 3 1
41 3 1
42 3 1
43 3 1
44 3 1
45 3 1
46 3 1
47 3 1
48 3 1
49 3 1
0 4 1
1 4 1
2 4 1
3 4 1
4 4 1
5 4 1
6 4 1
7 4 1
8 4 1
9 4 1
10 4 1
11 4 1
12 4 1
13 4 1
14 4 1
15 4 1
16 4 1
17 4 1
18 4 1
19 4 1
20 4 1
21 4 1
22 4 1
23 4 1
24 4 1
25 4 1
26 4 1
27 4 1
28 4 1
29 4 1
30 4 1
31 4 1
32 4 1
33 4 1
34 4 1
35 4 1
36 4 1
37 4 1
38 4 1
39 4 1
40 4 1
41 4 1
42 4 1
43 4 1
44 4 1
45 4 1
46 4 1
47 4 1
48 4 1
49 4 1
0 5 1
1 5 1
2 5 1
3 5 1
4 5 1
5 5 1
6 5 1
7 5 1
8 5 1
9 5 1
10 5 1
11 5 1
12 5 1
13 5 1
14 5 1
15 5 1
16 5 1
17 5 1
18 5 1
19 5 1
20 5 1
21 5 1
22 5 1
23 5 1
24 5 1
25 5 1
26 5 1
27 5 1
28 5 1
29 5 1
30 5 1
31 5 1
32 5 1
33 5 1
34 5 1
35 5 1
36 5 1
37 5 1
38 5 1
39 5 1
40 5 1
41 5 1
42 5 1
43 5 1
44 5 1
45 5 1
46 5 1
47 5 1
48 5 1
49 5 1
0 6 1
1 6 1
2 6 1
3 6 1
4 6 1
5 6 1
6 6 1
7 6 1
8 6 1
9 6 1
10 6 1
11 6 1
12 6 1
13 6 1
14 6 1
15 6 1
16 6 1
17 6 1
18 6 1
19 6 1
20 6 1
21 6 1
22 6 1
23 6 1
24 6 1
25 6 1
26 6 1
27 6 1
28 6 1
29 6 1
30 6 1
31 6 1
32 6 1
33 6 1
34 6 1
35 6 1
36 6 1
37 6 1
38 6 1
39 6 1
40 6 1
41 6 1
42 6 1
43 6 1
44 6 1
45 6 1
46 6 1
47 6 1
48 6 1
49 6 1
0 7 1
1 7 1
2 7 1
3 7 1
4 7 1
5 7 1
6 7 1
7 7 1
8 7 1
9 7 1
10 7 1
11 7 1
12 7 1
13 7 1
14 7 1
15 7 1
16 7 1
17 7 1
18 7 1
19 7 1
20 7 1
21 7 1
22 7 1
23 7 1
24 7 1
25 7 1
26 7 1
27 7 1
28 7 1
29 7 1
30 7 1
31 7 1
32 7 1
33 7 1
34 7 1
35 7 1
36 7 1
37 7 1
38 7 1
39 7 1
40 7 1
41 7 1
42 7 1
43 7 1
44 7 1
45 7 1
46 7 1
47 7 1
48 7 1
49 7 1
0 8 1
1 8 1
2 8 1
3 8 1
4 8 1
5 8 1
6 8 1
7 8 1
8 8 1
9 8 1
10 8 1
11 8 1
12 8 1
13 8 1
14 8 1
15 8 1
16 8 1
17 8 1
18 8 1
19 8 1
20 8 1
21 8 1
22 8 1
23 8 1
24 8 1
25 8 1
26 8 1
27 8 1
28 8 1
29 8 1
30 8 1
31 8 1
32 8 1
33 8 1
34 8 1
35 8 1
36 8 1
37 8 1
38 8 1
39 8 1
40 8 1
41 8 1
42 8 1
43 8 1
44 8 1
45 8 1
46 8 1
47 8 1
48 8 1
49 8 1
0 9 1
1 9 1
2 9 1
3 9 1
4 9 1
5 9 1
6 9 1
7 9 1
8 9 1
9 9 1
10 9 1
11 9 1
12 9 1
13 9 1
14 9 1
15 9 1
16 9 1
17 9 1
18 9 1
19 9 1
20 9 1
21 9 1
22 9 1
23 9 1
24 9 1
25 9 1
26 9 1
27 9 1
28 9 1
29 9 1
30 9 1
31 9 1
32 9 1
33 9 1
34 9 1
35 9 1
36 9 1
37 9 1
38 9 1
39 9 1
40 9 1
41 9 1
42 9 1
43 9 1
44 9 1
45 9 1
46 9 1
47 9 1
48 9 1
49 9 1
0 0 2
1 0 2
2 0 2
3 0 2
4 0 2
5 0 2
6 0 2
7 0 2
8 0 2
9 0 2
10 0 2
11 0 2
12 0 2
13 0 2
14 0 2
15 0 2
16 0 2
17 0 2
18 0 2
19 0 2
20 0 2
21 0 2
22 0 2
23 0 2
24 0 2
25 0 2
26 0 2
27 0 2
28 0 2
29 0 2
30 0 2
31 0 2
32 0 2
33 0 2
34 0 2
35 0 2
36 0 2
37 0 2
38 0 2
39 0 2
40 0 2
41 0 2
42 0 2
43 0 2
44 0 2
45 0 2
46 0 2
47 0 2
48 0 2
49 0 2
0 1 2
1 1 2
2 1 2
3 1 2
4 1 2
5 1 2
6 1 2
7 1 2
8 1 2
9 1 2
10 1 2
11 1 2
12 1 2
13 1 2
14 1 2
15 1 2
16 1 2
17 1 2
18 1 2
19 1 2
20 1 2
21 1 2
22 1 2
23 1 2
24 1 2
25 1 2
26 1 2
27 1 2
28 1 2
29 1 2
30 1 2
31 1 2
32 1 2
33 1 2
34 1 2
35 1 2
36 1 2
37 1 2
38 1 2
39 1 2
40 1 2
41 1 2
42 1 2
43 1 2
44 1 2
45 1 2
46 1 2
47 1 2
48 1 2
49 1 2
0 2 2
1 2 2
2 2 2
3 2 2
4 2 2
5 2 2
6 2 2
7 2 2
8 2 2
9 2 2
10 2 2
11 2 2
12 2 2
13 2 2
14 2 2
15 2 2
16 2 2
17 2 2
18 2 2
19 2 2
20 2 2
21 2 2
22 2 2
23 2 2
24 2 2
25 2 2
26 2 2
27 2 2
28 2 2
29 2 2
30 2 2
31 2 2
32 2 2
33 2 2
34 2 2
35 2 2
36 2 2
37 2 2
38 2 2
39 2 2
40 2 2
41 2 2
42 2 2
43 2 2
44 2 2
45 2 2
46 2 2
47 2 2
48 2 2
49 2 2
0 3 2
1 3 2
2 3 2
3 3 2
4 3 2
5 3 2
6 3 2
7 3 2
8 3 2
9 3 2
10 3 2
11 3 2
12 3 2
13 3 2
14 3 2
15 3 2
16 3 2
17 3 2
18 3 2
19 3 2
20 3 2
21 3 2
22 3 2
23 3 2
24 3 2
25 3 2
26 3 2
27 3 2
28 3 2
29 3 2
30 3 2
31 3 2
32 3 2
33 3 2
34 3 2
35 3 2
36 3 2
37 3 2
38 3 2
39 3 2
40 3 2
41 3 2
42 3 2
43 3 2
44 3 2
45 3 2
46 3 2
47 3 2
48 3 2
49 3 2
0 4 2
1 4 2
2 4 2
3 4 2
4 4 2
5 4 2
6 4 2
7 4 2
8 4 2
9 4 2
10 4 2
11 4 2
12 4 2
13 4 2
14 4 2
15 4 2
16 4 2
17 4 2
18 4 2
19 4 2
20 4 2
21 4 2
22 4 2
23 4 2
24 4 2
25 4 2
26 4 2
27 4 2
28 4 2
29 4 2
30 4 2
31 4 2
32 4 2
33 4 2
34 4 2
35 4 2
36 4 2
37 4 2
38 4 2
39 4 2
40 4 2
41 4 2
42 4 2
43 4 2
44 4 2
45 4 2
46 4 2
47 4 2
48 4 2
49 4 2
0 5 2
1 5 2
2 5 2
3 5 2
4 5 2
5 5 2
6 5 2
7 5 2
8 5 2
9 5 2
10 5 2
11 5 2
12 5 2
13 5 2
14 5 2
15 5 2
16 5 2
17 5 2
18 5 2
19 5 2
20 5 2
21 5 2
22 5 2
23 5 2
24 5 2
25 5 2
26 5 2
27 5 2
28 5 2
29 5 2
30 5 2
31 5 2
32 5 2
33 5 2
34 5 2
35 5 2
36 5 2
37 5 2
38 5 2
39 5 2
40 5 2
41 5 2
42 5 2
43 5 2
44 5 2
45 5 2
46 5 2
47 5 2
48 5 2
49 5 2
0 6 2
1 6 2
2 6 2
3 6 2
4 6 2
5 6 2
6 6 2
7 6 2
8 6 2
9 6 2
10 6 2
11 6 2
12 6 2
13 6 2
14 6 2
15 6 2
16 6 2
17 6 2
18 6 2
19 6 2
20 6 2
21 6 2
22 6 2
23 6 2
24 6 2
25 6 2
26 6 2
27 6 2
28 6 2
29 6 2
30 6 2
31 6 2
32 6 2
33 6 2
34 6 2
35 6 2
36 6 2
37 6 2
38 6 2
39 6 2
40 6 2
41 6 2
42 6 2
43 6 2
44 6 2
45 6 2
46 6 2
47 6 2
48 6 2
49 6 2
0 7 2
1 7 2
2 7 2
3 7 2
4 7 2
5 7 2
6 7 2
7 7 2
8 7 2
9 7 2
10 7 2
11 7 2
12 7 2
13 7 2
14 7 2
15 7 2
16 7 2
17 7 2
18 7 2
19 7 2
20 7 2
21 7 2
22 7 2
23 7 2
24 7 2
25 7 2
26 7 2
27 7 2
28 7 2
29 7 2
30 7 2
31 7 2
32 7 2
33 7 2
34 7 2
35 7 2
36 7 2
37 7 2
38 7 2
39 7 2
40 7 2
41 7 2
42 7 2
43 7 2
44 7 2
45 7 2
46 7 2
47 7 2
48 7 2
49 7 2
0 8 2
1 8 2
2 8 2
3 8 2
4 8 2
5 8 2
6 8 2
7 8 2
8 8 2
9 8 2
10 8 2
11 8 2
12 8 2
13 8 2
14 8 2
15 8 2
16 8 2
17 8 2
18 8 2
19 8 2
20 8 2
21 8 2
22 8 2
23 8 2
24 8 2
25 8 2
26 8 2
27 8 2
28 8 2
29 8 2
30 8 2
31 8 2
32 8 2
33 8 2
34 8 2
35 8 2
36 8 2
37 8 2
38 8 2
39 8 2
40 8 2
41 8 2
42 8 2
43 8 2
44 8 2
45 8 2
46 8 2
47 8 2
48 8 2
49 8 2
0 9 2
1 9 2
2 9 2
3 9 2
4 9 2
[...]
POINT_DATA 15000
SCALARS sol419 float
LOOKUP_TABLE default
58.4501
58.4471
58.444
58.441
58.4379
58.4349
58.4318
58.4288
58.4257
58.4227
58.4196
58.4166
58.4136
58.4105
58.4075
58.4044
58.4014
58.3983
58.3953
58.3923
58.3892
58.3862
58.3831
58.3801
58.3771
58.374
58.371
58.3679
58.3649
58.3619
58.3588
58.3558
58.3528
58.3497
58.3467
58.3436
58.3406
58.3376
58.3345
58.3315
58.3285
58.3254
58.3224
58.3194
58.3164
58.3133
58.3103
58.3073
58.3042
58.3012
58.2982
58.2951
58.2921
58.2891
58.2861
58.283
58.28
58.277
58.274
58.2709
58.2679
58.2649
58.2619
58.2588
58.2558
58.2528
58.2498
58.2467
58.2437
58.2407
58.2377
58.2347
58.2316
58.2286
58.2256
58.2226
58.2196
58.2165
58.2135
58.2105
58.2075
58.2045
58.2015
58.1984
58.1954
58.1924
58.1894
58.1864
58.1834
58.1804
58.1773
58.1743
58.1713
58.1683
58.1653
58.1623
58.1593
58.1563
58.1533
58.1502
58.1472
58.1442
58.1412
58.1382
58.1352
58.1322
58.1292
58.1262
58.1232
58.1202
58.1172
58.1142
58.1112
58.1082
58.1052
58.1022
58.0992
58.0961
58.0931
58.0901
58.0871
58.0841
58.0811
58.0781
58.0751
58.0721
58.0691
58.0662
58.0632
58.0602
58.0572
58.0542
58.0512
58.0482
58.0452
58.0422
58.0392
58.0362
58.0332
58.0302
58.0272
58.0242
58.0212
58.0182
58.0152
58.0123
58.0093
58.0063
58.0033
58.0003
57.9973
57.9943
57.9913
57.9883
57.9854
57.9824
57.9794
57.9764
57.9734
57.9704
57.9674
57.9645
57.9615
57.9585
57.9555
57.9525
57.9495
57.9466
57.9436
57.9406
57.9376
57.9346
57.9317
57.9287
57.9257
57.9227
57.9197
57.9168
57.9138
57.9108
57.9078
57.9049
57.9019
57.8989
57.8959
57.893
57.89
57.887
57.884
57.8811
57.8781
57.8751
57.8721
57.8692
57.8662
57.8632
57.8603
57.8573
57.8543
57.8513
57.8484
57.8454
57.8424
57.8395
57.8365
57.8335
57.8306
57.8276
57.8246
57.8217
57.8187
57.8157
57.8128
57.8098
57.8069
57.8039
57.8009
57.798
57.795
57.792
57.7891
57.7861
57.7832
57.7802
57.7772
57.7743
57.7713
57.7684
57.7654
57.7625
57.7595
57.7565
57.7536
57.7506
57.7477
57.7447
57.7418
57.7388
57.7359
57.7329
57.73
57.727
57.7241
57.7211
57.7181
57.7152
57.7122
57.7093
57.7063
57.7034
57.7004
57.6975
57.6946
57.6916
57.6887
57.6857
57.6828
57.6798
57.6769
57.6739
57.671
57.668
57.6651
57.6621
57.6592
57.6563
57.6533
57.6504
57.6474
57.6445
57.6416
57.6386
57.6357
57.6327
57.6298
57.6269
57.6239
57.621
57.618
57.6151
57.6122
57.6092
57.6063
57.6034
57.6004
57.5975
57.5946
57.5916
57.5887
57.5858
57.5828
57.5799
57.577
57.574
57.5711
57.5682
57.5652
57.5623
57.5594
57.5564
57.5535
57.5506
57.5477
57.5447
57.5418
57.5389
57.5359
57.533
57.5301
57.5272
57.5242
57.5213
57.5184
57.5155
57.5125
57.5096
57.5067
57.5038
57.5009
57.4979
57.495
57.4921
57.4892
57.4863
57.4833
57.4804
57.4775
57.4746
57.4717
57.4687
57.4658
57.4629
57.46
57.4571
57.4542
57.4512
57.4483
57.4454
57.4425
57.4396
57.4367
57.4338
57.4308
57.4279
57.425
57.4221
57.4192
57.4163
57.4134
57.4105
57.4076
57.4047
57.4017
57.3988
57.3959
57.393
57.3901
57.3872
57.3843
57.3814
57.3785
57.3756
57.3727
57.3698
57.3669
57.364
57.3611
57.3582
57.3553
57.3524
57.3495
57.3466
57.3437
57.3408
57.3379
57.335
57.3321
57.3292
57.3263
57.3234
57.3205
57.3176
57.3147
57.3118
57.3089
57.306
57.3031
57.3002
57.2973
57.2944
57.2915
57.2886
57.2857
57.2828
57.2799
57.277
57.2742
57.2713
57.2684
57.2655
57.2626
57.2597
57.2568
57.2539
57.251
57.2482
57.2453
57.2424
57.2395
57.2366
57.2337
57.2308
57.228
57.2251
57.2222
57.2193
57.2164
57.2135
57.2107
57.2078
57.2049
57.202
57.1991
57.1962
57.1934
57.1905
57.1876
57.1847
57.1818
57.179
57.1761
57.1732
57.1703
57.1675
57.1646
57.1617
57.1588
57.156
57.1531
57.1502
57.1473
57.1445
57.1416
57.1387
57.1358
57.133
57.1301
57.1272
57.1244
57.1215
57.1186
57.1157
57.1129
57.11
57.1071
57.1043
57.1014
57.0985
57.0957
57.0928
57.0899
57.0871
57.0842
57.0813
57.0785
57.0756
57.0727
57.0699
57.067
57.0642
57.0613
57.0584
57.0556
57.0527
57.0499
57.047
57.0441
57.0413
57.0384
57.0356
57.0327
57.0298
57.027
57.0241
57.0213
57.0184
57.0156
57.0127
57.0098
57.007
57.0041
57.0013
56.9984
56.9956
56.9927
56.9899
56.987
56.9842
56.9813
56.9785
56.9756
56.9728
56.9699
56.9671
56.9642
56.9614
56.9585
56.9557
56.9528
56.95
56.9471
56.9443
56.9414
56.9386
56.9357
56.9329
56.9301
56.9272
56.9244
56.9215
56.9187
56.9158
56.913
56.9102
56.9073
56.9045
56.9016
56.8988
56.896
56.8931
56.8903
56.8874
56.8846
56.8818
56.8789
56.8761
56.8733
56.8704
56.8676
56.8647
56.8619
56.8591
56.8562
56.8534
56.8506
56.8477
56.8449
56.8421
56.8392
56.8364
56.8336
56.8308
56.8279
56.8251
56.8223
56.8194
56.8166
56.8138
56.8109
56.8081
56.8053
56.8025
56.7996
56.7968
56.794
56.7912
56.7883
56.7855
56.7827
56.7799
56.777
56.7742
56.7714
56.7686
56.7658
56.7629
56.7601
56.7573
56.7545
56.7517
56.7488
56.746
56.7432
56.7404
56.7376
56.7347
56.7319
56.7291
56.7263
56.7235
56.7207
56.7178
56.715
56.7122
56.7094
56.7066
56.7038
56.701
56.6981
56.6953
56.6925
56.6897
56.6869
56.6841
56.6813
56.6785
56.6757
56.6729
56.67
56.6672
56.6644
56.6616
56.6588
56.656
56.6532
56.6504
56.6476
56.6448
56.642
56.6392
56.6364
56.6336
56.6308
56.628
56.6252
56.6224
56.6196
56.6168
56.614
56.6112
56.6084
56.6056
56.6028
56.6
56.5972
56.5944
56.5916
56.5888
56.586
56.5832
56.5804
56.5776
56.5748
56.572
56.5692
56.5664
56.5636
56.5608
56.558
56.5552
56.5524
56.5496
56.5468
56.5441
56.5413
56.5385
56.5357
56.5329
56.5301
56.5273
56.5245
56.5217
56.519
56.5162
56.5134
56.5106
56.5078
56.505
56.5022
56.4994
56.4967
56.4939
56.4911
56.4883
56.4855
56.4827
56.48
56.4772
56.4744
56.4716
56.4688
56.4661
56.4633
56.4605
56.4577
56.4549
56.4522
56.4494
56.4466
56.4438
56.4411
56.4383
56.4355
56.4327
56.4299
56.4272
56.4244
56.4216
56.4188
56.4161
56.4133
56.4105
56.4078
56.405
56.4022
56.3994
56.3967
56.3939
56.3911
56.3884
56.3856
56.3828
56.3801
56.3773
56.3745
56.3717
56.369
56.3662
56.3634
56.3607
56.3579
56.3552
56.3524
56.3496
56.3469
56.3441
56.3413
56.3386
56.3358
56.333
56.3303
56.3275
56.3248
56.322
56.3192
56.3165
56.3137
56.311
56.3082
56.3054
56.3027
56.2999
56.2972
56.2944
56.2917
56.2889
56.2861
56.2834
56.2806
56.2779
56.2751
56.2724
56.2696
56.2669
56.2641
56.2614
56.2586
56.2559
56.2531
56.2504
56.2476
56.2449
56.2421
56.2394
56.2366
56.2339
56.2311
56.2284
56.2256
56.2229
56.2201
56.2174
56.2146
56.2119
56.2091
56.2064
56.2037
56.2009
56.1982
56.1954
56.1927
56.1899
56.1872
56.1845
56.1817
56.179
56.1762
56.1735
56.1708
56.168
56.1653
56.1625
56.1598
56.1571
56.1543
56.1516
56.1489
56.1461
56.1434
56.1407
56.1379
56.1352
56.1324
56.1297
56.127
56.1242
56.1215
56.1188
56.116
56.1133
56.1106
56.1079
56.1051
56.1024
56.0997
56.0969
56.0942
56.0915
56.0888
56.086
56.0833
56.0806
56.0778
56.0751
56.0724
56.0697
56.0669
56.0642
56.0615
56.0588
56.056
56.0533
56.0506
56.0479
56.0452
56.0424
56.0397
56.037
56.0343
56.0315
56.0288
56.0261
56.0234
56.0207
56.018
56.0152
56.0125
56.0098
56.0071
56.0044
56.0017
55.9989
55.9962
55.9935
55.9908
55.9881
55.9854
55.9827
55.9799
55.9772
55.9745
55.9718
55.9691
55.9664
55.9637
55.961
55.9582
55.9555
55.9528
55.9501
55.9474
55.9447
55.942
55.9393
55.9366
55.9339
55.9312
55.9285
55.9258
55.9231
55.9204
55.9176
55.9149
55.9122
55.9095
55.9068
55.9041
55.9014
55.8987
55.896
55.8933
55.8906
55.8879
55.8852
55.8825
55.8798
55.8771
55.8744
55.8717
55.869
55.8663
55.8636
55.8609
55.8583
55.8556
55.8529
55.8502
55.8475
55.8448
55.8421
55.8394
55.8367
55.834
55.8313
55.8286
55.8259
55.8232
55.8205
55.8179
55.8152
55.8125
55.8098
55.8071
55.8044
55.8017
55.799
55.7963
55.7937
55.791
55.7883
55.7856
55.7829
55.7802
55.7775
55.7749
55.7722
55.7695
55.7668
55.7641
55.7614
55.7588
55.7561
55.7534
55.7507
55.748
55.7454
55.7427
55.74
55.7373
55.7346
55.732
55.7293
55.7266
55.7239
55.7213
55.7186
55.7159
55.7132
55.7106
55.7079
55.7052
55.7025
55.6999
55.6972
55.6945
55.6918
55.6892
55.6865
55.6838
55.6812
55.6785
55.6758
55.6731
55.6705
55.6678
55.6651
55.6625
55.6598
55.6571
55.6545
55.6518
55.6491
55.6465
55.6438
55.6411
55.6385
55.6358
55.6331
55.6305
55.6278
55.6252
55.6225
55.6198
55.6172
55.6145
55.6118
55.6092
55.6065
55.6039
55.6012
55.5985
55.5959
55.5932
55.5906
55.5879
55.5853
55.5826
55.5799
55.5773
55.5746
55.572
55.5693
55.5667
55.564
55.5613
55.5587
55.556
55.5534
55.5507
55.5481
55.5454
55.5428
55.5401
55.5375
55.5348
55.5322
55.5295
55.5269
55.5242
55.5216
55.5189
55.5163
55.5136
55.511
55.5083
55.5057
55.5031
55.5004
55.4978
55.4951
55.4925
55.4898
55.4872
55.4845
55.4819
55.4793
55.4766
55.474
55.4713
55.4687
55.4661
55.4634
55.4608
55.4581
55.4555
55.4529
55.4502
55.4476
55.4449
55.4423
55.4397
55.437
55.4344
55.4318
55.4291
55.4265
55.4239
55.4212
55.4186
55.416
55.4133
55.4107
55.4081
55.4054
55.4028
55.4002
55.3975
55.3949
55.3923
55.3896
55.387
55.3844
55.3817
55.3791
55.3765
55.3739
55.3712
55.3686
55.366
55.3634
55.3607
55.3581
55.3555
55.3529
55.3502
55.3476
55.345
55.3424
55.3397
55.3371
55.3345
55.3319
55.3293
55.3266
55.324
55.3214
55.3188
55.3162
55.3135
55.3109
55.3083
55.3057
55.3031
55.3004
55.2978
55.2952
55.2926
55.29
55.2874
55.2847
55.2821
55.2795
55.2769
55.2743
55.2717
55.2691
55.2665
55.2638
55.2612
55.2586
55.256
55.2534
55.2508
55.2482
55.2456
55.243
55.2404
55.2377
55.2351
55.2325
55.2299
55.2273
55.2247
55.2221
55.2195
55.2169
55.2143
55.2117
55.2091
55.2065
55.2039
55.2013
55.1987
55.1961
55.1935
55.1909
55.1883
55.1857
55.1831
55.1805
55.1779
55.1753
55.1727
55.1701
55.1675
55.1649
55.1623
55.1597
55.1571
55.1545
55.1519
55.1493
55.1467
55.1441
55.1415
55.1389
55.1363
55.1337
55.1311
55.1285
55.1259
55.1233
55.1208
55.1182
55.1156
55.113
55.1104
55.1078
55.1052
55.1026
55.1
55.0975
55.0949
55.0923
55.0897
55.0871
55.0845
55.0819
55.0793
55.0768
55.0742
55.0716
55.069
55.0664
55.0638
55.0613
55.0587
55.0561
55.0535
55.0509
55.0483
55.0458
55.0432
55.0406
55.038
55.0354
55.0329
55.0303
55.0277
55.0251
55.0226
55.02
55.0174
55.0148
55.0122
55.0097
55.0071
55.0045
55.0019
54.9994
54.9968
54.9942
54.9917
54.9891
54.9865
54.9839
54.9814
54.9788
54.9762
54.9737
54.9711
54.9685
54.9659
54.9634
54.9608
54.9582
54.9557
54.9531
54.9505
54.948
54.9454
54.9428
54.9403
54.9377
54.9351
54.9326
54.93
54.9274
54.9249
54.9223
54.9198
54.9172
54.9146
54.9121
54.9095
54.9069
54.9044
54.9018
54.8993
54.8967
54.8941
54.8916
54.889
54.8865
54.8839
54.8814
54.8788
54.8762
54.8737
54.8711
54.8686
54.866
54.8635
54.8609
54.8584
54.8558
54.8533
54.8507
54.8481
54.8456
54.843
54.8405
54.8379
54.8354
54.8328
54.8303
54.8277
54.8252
54.8226
54.8201
54.8175
54.815
54.8125
54.8099
54.8074
54.8048
54.8023
54.7997
54.7972
54.7946
54.7921
54.7895
54.787
54.7845
54.7819
54.7794
54.7768
54.7743
54.7717
54.7692
54.7667
54.7641
54.7616
54.759
54.7565
54.754
54.7514
54.7489
54.7463
54.7438
54.7413
54.7387
54.7362
54.7337
54.7311
54.7286
54.7261
54.7235
54.721
54.7185
54.7159
54.7134
54.7109
54.7083
54.7058
54.7033
54.7007
54.6982
54.6957
54.6931
54.6906
54.6881
54.6856
54.683
54.6805
54.678
54.6754
54.6729
54.6704
54.6679
54.6653
54.6628
54.6603
54.6578
54.6552
54.6527
54.6502
54.6477
54.6451
54.6426
54.6401
54.6376
54.635
54.6325
54.63
54.6275
54.625
54.6224
54.6199
54.6174
54.6149
54.6124
54.6099
54.6073
54.6048
54.6023
54.5998
54.5973
54.5948
54.5922
54.5897
54.5872
54.5847
54.5822
54.5797
54.5772
54.5746
54.5721
54.5696
54.5671
54.5646
54.5621
54.5596
54.5571
54.5545
54.552
54.5495
54.547
54.5445
54.542
54.5395
54.537
54.5345
54.532
54.5295
54.527
54.5245
54.5219
54.5194
54.5169
54.5144
54.5119
54.5094
54.5069
54.5044
54.5019
54.4994
54.4969
54.4944
54.4919
54.4894
54.4869
54.4844
54.4819
54.4794
54.4769
54.4744
54.4719
54.4694
54.4669
54.4644
54.4619
54.4594
54.4569
54.4544
54.4519
54.4495
54.447
54.4445
54.442
54.4395
54.437
54.4345
54.432
54.4295
54.427
54.4245
54.422
54.4195
54.4171
54.4146
54.4121
54.4096
54.4071
54.4046
54.4021
54.3996
54.3971
54.3947
54.3922
54.3897
54.3872
54.3847
54.3822
54.3797
54.3773
54.3748
54.3723
54.3698
54.3673
54.3648
54.3624
54.3599
54.3574
54.3549
54.3524
54.35
54.3475
54.345
54.3425
54.34
54.3376
54.3351
54.3326
54.3301
54.3277
54.3252
54.3227
54.3202
54.3177
54.3153
54.3128
54.3103
54.3079
54.3054
54.3029
54.3004
54.298
54.2955
54.293
54.2905
54.2881
54.2856
54.2831
54.2807
54.2782
54.2757
54.2733
54.2708
54.2683
54.2658
54.2634
54.2609
54.2584
54.256
54.2535
54.251
54.2486
54.2461
54.2437
54.2412
54.2387
54.2363
54.2338
54.2313
54.2289
54.2264
54.2239
54.2215
54.219
54.2166
54.2141
54.2116
54.2092
54.2067
54.2043
54.2018
54.1993
54.1969
54.1944
54.192
54.1895
54.1871
54.1846
54.1821
54.1797
54.1772
54.1748
54.1723
54.1699
54.1674
54.165
54.1625
54.1601
54.1576
54.1552
54.1527
54.1503
54.1478
54.1454
54.1429
54.1405
54.138
54.1356
54.1331
54.1307
54.1282
54.1258
54.1233
54.1209
54.1184
54.116
54.1135
54.1111
54.1086
54.1062
54.1038
54.1013
54.0989
54.0964
54.094
54.0915
54.0891
54.0867
54.0842
54.0818
54.0793
54.0769
54.0745
54.072
54.0696
54.0671
54.0647
54.0623
54.0598
54.0574
54.0549
54.0525
54.0501
54.0476
54.0452
54.0428
54.0403
54.0379
54.0355
54.033
54.0306
54.0282
54.0257
54.0233
54.0209
54.0184
54.016
54.0136
54.0111
54.0087
54.0063
54.0039
54.0014
53.999
53.9966
53.9941
53.9917
53.9893
53.9869
53.9844
53.982
53.9796
53.9772
53.9747
53.9723
53.9699
53.9675
53.965
53.9626
53.9602
53.9578
53.9553
53.9529
53.9505
53.9481
53.9457
53.9432
53.9408
53.9384
53.936
53.9336
53.9311
53.9287
53.9263
53.9239
53.9215
53.919
53.9166
53.9142
53.9118
53.9094
53.907
53.9046
53.9021
53.8997
53.8973
53.8949
53.8925
53.8901
53.8877
53.8852
53.8828
53.8804
53.878
53.8756
53.8732
53.8708
53.8684
53.866
53.8636
53.8611
53.8587
53.8563
53.8539
53.8515
53.8491
53.8467
53.8443
53.8419
53.8395
53.8371
53.8347
53.8323
53.8299
53.8275
53.8251
53.8227
53.8203
53.8179
53.8155
53.8131
53.8107
53.8083
53.8059
53.8035
53.8011
53.7987
53.7963
53.7939
53.7915
53.7891
53.7867
53.7843
53.7819
53.7795
53.7771
53.7747
53.7723
53.7699
53.7675
53.7651
53.7627
53.7603
53.7579
53.7555
53.7531
53.7507
53.7484
53.746
53.7436
53.7412
53.7388
53.7364
53.734
53.7316
53.7292
53.7268
53.7245
53.7221
53.7197
53.7173
53.7149
53.7125
53.7101
53.7078
53.7054
53.703
53.7006
53.6982
53.6958
53.6934
53.6911
53.6887
53.6863
53.6839
53.6815
53.6792
53.6768
53.6744
53.672
53.6696
53.6673
53.6649
53.6625
53.6601
53.6577
53.6554
53.653
53.6506
53.6482
53.6459
53.6435
53.6411
53.6387
53.6363
53.634
53.6316
53.6292
53.6269
53.6245
53.6221
53.6197
53.6174
53.615
53.6126
53.6102
53.6079
53.6055
53.6031
53.6008
53.5984
53.596
53.5937
53.5913
53.5889
53.5866
53.5842
53.5818
53.5795
53.5771
53.5747
53.5724
53.57
53.5676
53.5653
53.5629
53.5605
53.5582
53.5558
53.5534
53.5511
53.5487
53.5464
53.544
53.5416
53.5393
53.5369
53.5346
53.5322
53.5298
53.5275
53.5251
53.5228
53.5204
53.5181
53.5157
53.5133
53.511
53.5086
53.5063
53.5039
53.5016
53.4992
53.4969
53.4945
53.4921
53.4898
53.4874
53.4851
53.4827
53.4804
53.478
53.4757
53.4733
53.471
53.4686
53.4663
53.4639
53.4616
53.4592
53.4569
53.4545
53.4522
53.4498
53.4475
53.4452
53.4428
53.4405
53.4381
53.4358
53.4334
53.4311
53.4287
53.4264
53.4241
53.4217
53.4194
53.417
53.4147
53.4123
53.41
53.4077
53.4053
53.403
53.4006
53.3983
53.396
53.3936
53.3913
53.3889
53.3866
53.3843
53.3819
53.3796
53.3773
53.3749
53.3726
53.3703
53.3679
53.3656
53.3633
53.3609
53.3586
53.3563
53.3539
53.3516
53.3493
53.3469
53.3446
53.3423
53.3399
53.3376
53.3353
53.3329
53.3306
53.3283
53.326
53.3236
53.3213
53.319
53.3166
53.3143
53.312
53.3097
53.3073
53.305
53.3027
53.3004
53.298
53.2957
53.2934
53.2911
53.2887
53.2864
53.2841
53.2818
53.2795
53.2771
53.2748
53.2725
53.2702
53.2679
53.2655
53.2632
53.2609
53.2586
53.2563
53.2539
53.2516
53.2493
53.247
53.2447
53.2424
53.2401
53.2377
53.2354
53.2331
53.2308
53.2285
53.2262
53.2239
53.2215
53.2192
53.2169
53.2146
53.2123
53.21
53.2077
53.2054
53.2031
53.2007
53.1984
53.1961
53.1938
53.1915
53.1892
53.1869
53.1846
53.1823
53.18
53.1777
53.1754
53.1731
53.1708
53.1684
53.1661
53.1638
53.1615
53.1592
53.1569
53.1546
53.1523
53.15
53.1477
53.1454
53.1431
53.1408
53.1385
53.1362
53.1339
53.1316
53.1293
53.127
53.1247
53.1224
53.1201
53.1178
53.1155
53.1132
53.1109
53.1087
53.1064
53.1041
53.1018
53.0995
53.0972
53.0949
53.0926
53.0903
53.088
53.0857
53.0834
53.0811
53.0788
53.0766
53.0743
53.072
53.0697
53.0674
53.0651
53.0628
53.0605
53.0582
53.056
53.0537
53.0514
53.0491
53.0468
53.0445
53.0422
53.0399
53.0377
53.0354
53.0331
53.0308
53.0285
53.0262
53.024
53.0217
53.0194
53.0171
53.0148
53.0126
53.0103
53.008
53.0057
53.0034
53.0012
52.9989
52.9966
52.9943
52.992
52.9898
52.9875
52.9852
52.9829
52.9807
52.9784
52.9761
52.9738
52.9716
52.9693
52.967
52.9647
52.9625
52.9602
52.9579
52.9556
52.9534
52.9511
52.9488
52.9466
52.9443
52.942
52.9398
52.9375
52.9352
52.9329
52.9307
52.9284
52.9261
52.9239
52.9216
52.9193
52.9171
52.9148
52.9125
52.9103
52.908
52.9057
52.9035
52.9012
52.899
52.8967
52.8944
52.8922
52.8899
52.8876
52.8854
52.8831
52.8809
52.8786
52.8763
52.8741
52.8718
52.8696
52.8673
52.865
52.8628
52.8605
52.8583
52.856
52.8538
52.8515
52.8492
52.847
52.8447
52.8425
52.8402
52.838
52.8357
52.8335
52.8312
52.829
52.8267
52.8245
52.8222
52.82
52.8177
52.8155
52.8132
52.811
52.8087
52.8065
52.8042
52.802
52.7997
52.7975
52.7952
52.793
52.7907
52.7885
52.7862
52.784
52.7817
52.7795
52.7772
52.775
52.7728
52.7705
52.7683
52.766
52.7638
52.7615
52.7593
52.7571
52.7548
52.7526
52.7503
52.7481
52.7459
52.7436
52.7414
52.7391
52.7369
52.7347
52.7324
52.7302
52.7279
52.7257
52.7235
52.7212
52.719
52.7168
52.7145
52.7123
52.7101
52.7078
52.7056
52.7034
52.7011
52.6989
52.6967
52.6944
52.6922
52.69
52.6877
52.6855
52.6833
52.681
52.6788
52.6766
52.6744
52.6721
52.6699
52.6677
52.6654
52.6632
52.661
52.6588
52.6565
52.6543
52.6521
52.6499
52.6476
52.6454
52.6432
52.641
52.6387
52.6365
52.6343
52.6321
52.6298
52.6276
52.6254
52.6232
52.621
52.6187
52.6165
52.6143
52.6121
52.6099
52.6076
52.6054
52.6032
52.601
52.5988
52.5966
52.5943
52.5921
52.5899
52.5877
52.5855
52.5833
52.5811
52.5788
52.5766
52.5744
52.5722
52.57
52.5678
52.5656
52.5633
52.5611
52.5589
52.5567
52.5545
52.5523
52.5501
52.5479
52.5457
52.5435
52.5412
52.539
52.5368
52.5346
52.5324
52.5302
52.528
52.5258
52.5236
52.5214
52.5192
52.517
52.5148
52.5126
52.5104
52.5082
52.506
52.5038
52.5016
52.4994
52.4972
52.495
52.4928
52.4906
52.4884
52.4862
52.484
52.4818
52.4796
52.4774
52.4752
52.473
52.4708
52.4686
52.4664
52.4642
52.462
52.4598
52.4576
52.4554
52.4532
52.451
52.4488
52.4466
52.4444
52.4422
52.44
52.4378
52.4357
52.4335
52.4313
52.4291
52.4269
52.4247
52.4225
52.4203
52.4181
52.4159
52.4138
52.4116
52.4094
52.4072
52.405
52.4028
52.4006
52.3984
52.3963
52.3941
52.3919
52.3897
52.3875
52.3853
52.3831
52.381
52.3788
52.3766
52.3744
52.3722
52.3701
52.3679
52.3657
52.3635
52.3613
52.3592
52.357
52.3548
52.3526
52.3504
52.3483
52.3461
52.3439
52.3417
52.3395
52.3374
52.3352
52.333
52.3308
52.3287
52.3265
52.3243
52.3221
52.32
52.3178
52.3156
52.3135
52.3113
52.3091
52.3069
52.3048
52.3026
52.3004
52.2983
52.2961
52.2939
52.2917
52.2896
52.2874
52.2852
52.2831
52.2809
52.2787
52.2766
52.2744
52.2722
52.2701
52.2679
52.2657
52.2636
52.2614
52.2592
52.2571
52.2549
52.2528
52.2506
52.2484
52.2463
52.2441
52.2419
52.2398
52.2376
52.2355
52.2333
52.2311
52.229
52.2268
52.2247
52.2225
52.2203
52.2182
52.216
52.2139
52.2117
52.2096
52.2074
52.2052
52.2031
52.2009
52.1988
52.1966
52.1945
52.1923
52.1902
52.188
52.1859
52.1837
52.1816
52.1794
52.1773
52.1751
52.173
52.1708
52.1687
52.1665
52.1644
52.1622
52.1601
52.1579
52.1558
52.1536
52.1515
52.1493
52.1472
52.145
52.1429
52.1407
52.1386
52.1364
52.1343
52.1322
52.13
52.1279
52.1257
52.1236
52.1214
52.1193
52.1172
52.115
52.1129
52.1107
52.1086
52.1064
52.1043
52.1022
52.1
52.0979
52.0958
52.0936
52.0915
52.0893
52.0872
52.0851
52.0829
52.0808
52.0787
52.0765
52.0744
52.0723
52.0701
52.068
52.0658
52.0637
52.0616
52.0594
52.0573
52.0552
52.0531
52.0509
52.0488
52.0467
52.0445
52.0424
52.0403
52.0381
52.036
52.0339
52.0318
52.0296
52.0275
52.0254
52.0232
52.0211
52.019
52.0169
52.0147
52.0126
52.0105
52.0084
52.0062
52.0041
52.002
51.9999
51.9977
51.9956
51.9935
51.9914
51.9893
51.9871
51.985
51.9829
51.9808
51.9787
51.9765
51.9744
51.9723
51.9702
51.9681
51.9659
51.9638