# vtk DataFile Version 2.0
vtk output
ASCII
DATASET STRUCTURED_GRID
DIMENSIONS 50 10 30
POINTS 15000 float
0 0 0
1 0 0
2 0 0
3 0 0
4 0 0
5 0 0
6 0 0
7 0 0
8 0 0
9 0 0
10 0 0
11 0 0
12 0 0
13 0 0
14 0 0
15 0 0
16 0 0
17 0 0
18 0 0
19 0 0
20 0 0
21 0 0
22 0 0
23 0 0
24 0 0
25 0 0
26 0 0
27 0 0
28 0 0
29 0 0
30 0 0
31 0 0
32 0 0
33 0 0
34 0 0
35 0 0
36 0 0
37 0 0
38 0 0
39 0 0
40 0 0
41 0 0
42 0 0
43 0 0
44 0 0
45 0 0
46 0 0
47 0 0
48 0 0
49 0 0
0 1 0
1 1 0
2 1 0
3 1 0
4 1 0
5 1 0
6 1 0
7 1 0
8 1 0
9 1 0
10 1 0
11 1 0
12 1 0
13 1 0
14 1 0
15 1 0
16 1 0
17 1 0
18 1 0
19 1 0
20 1 0
21 1 0
22 1 0
23 1 0
24 1 0
25 1 0
26 1 0
27 1 0
28 1 0
29 1 0
30 1 0
31 1 0
32 1 0
33 1 0
34 1 0
35 1 0
36 1 0
37 1 0
38 1 0
39 1 0
40 1 0
41 1 0
42 1 0
43 1 0
44 1 0
45 1 0
46 1 0
47 1 0
48 1 0
49 1 0
0 2 0
1 2 0
2 2 0
3 2 0
4 2 0
5 2 0
6 2 0
7 2 0
8 2 0
9 2 0
10 2 0
11 2 0
12 2 0
13 2 0
14 2 0
15 2 0
16 2 0
17 2 0
18 2 0
19 2 0
20 2 0
21 2 0
22 2 0
23 2 0
24 2 0
25 2 0
26 2 0
27 2 0
28 2 0
29 2 0
30 2 0
31 2 0
32 2 0
33 2 0
34 2 0
35 2 0
36 2 0
37 2 0
38 2 0
39 2 0
40 2 0
41 2 0
42 2 0
43 2 0
44 2 0
45 2 0
46 2 0
47 2 0
48 2 0
49 2 0
0 3 0
1 3 0
2 3 0
3 3 0
4 3 0
5 3 0
6 3 0
7 3 0
8 3 0
9 3 0
10 3 0
11 3 0
12 3 0
13 3 0
14 3 0
15 3 0
16 3 0
17 3 0
18 3 0
19 3 0
20 3 0
21 3 0
22 3 0
23 3 0
24 3 0
25 3 0
26 3 0
27 3 0
28 3 0
29 3 0
30 3 0
31 3 0
32 3 0
33 3 0
34 3 0
35 3 0
36 3 0
37 3 0
38 3 0
39 3 0
40 3 0
41 3 0
42 3 0
43 3 0
44 3 0
45 3 0
46 3 0
47 3 0
48 3 0
49 3 0
0 4 0
1 4 0
2 4 0
3 4 0
4 4 0
5 4 0
6 4 0
7 4 0
8 4 0
9 4 0
10 4 0
11 4 0
12 4 0
13 4 0
14 4 0
15 4 0
16 4 0
17 4 0
18 4 0
19 4 0
20 4 0
21 4 0
22 4 0
23 4 0
24 4 0
25 4 0
26 4 0
27 4 0
28 4 0
29 4 0
30 4 0
31 4 0
32 4 0
33 4 0
34 4 0
35 4 0
36 4 0
37 4 0
38 4 0
39 4 0
40 4 0
41 4 0
42 4 0
43 4 0
44 4 0
45 4 0
46 4 0
47 4 0
48 4 0
49 4 0
0 5 0
1 5 0
2 5 0
3 5 0
4 5 0
5 5 0
6 5 0
7 5 0
8 5 0
9 5 0
10 5 0
11 5 0
12 5 0
13 5 0
14 5 0
15 5 0
16 5 0
17 5 0
18 5 0
19 5 0
20 5 0
21 5 0
22 5 0
23 5 0
24 5 0
25 5 0
26 5 0
27 5 0
28 5 0
29 5 0
30 5 0
31 5 0
32 5 0
33 5 0
34 5 0
35 5 0
36 5 0
37 5 0
38 5 0
39 5 0
40 5 0
41 5 0
42 5 0
43 5 0
44 5 0
45 5 0
46 5 0
47 5 0
48 5 0
49 5 0
0 6 0
1 6 0
2 6 0
3 6 0
4 6 0
5 6 0
6 6 0
7 6 0
8 6 0
9 6 0
10 6 0
11 6 0
12 6 0
13 6 0
14 6 0
15 6 0
16 6 0
17 6 0
18 6 0
19 6 0
20 6 0
21 6 0
22 6 0
23 6 0
24 6 0
25 6 0
26 6 0
27 6 0
28 6 0
29 6 0
30 6 0
31 6 0
32 6 0
33 6 0
34 6 0
35 6 0
36 6 0
37 6 0
38 6 0
39 6 0
40 6 0
41 6 0
42 6 0
43 6 0
44 6 0
45 6 0
46 6 0
47 6 0
48 6 0
49 6 0
0 7 0
1 7 0
2 7 0
3 7 0
4 7 0
5 7 0
6 7 0
7 7 0
8 7 0
9 7 0
10 7 0
11 7 0
12 7 0
13 7 0
14 7 0
15 7 0
16 7 0
17 7 0
18 7 0
19 7 0
20 7 0
21 7 0
22 7 0
23 7 0
24 7 0
25 7 0
26 7 0
27 7 0
28 7 0
29 7 0
30 7 0
31 7 0
32 7 0
33 7 0
34 7 0
35 7 0
36 7 0
37 7 0
38 7 0
39 7 0
40 7 0
41 7 0
42 7 0
43 7 0
44 7 0
45 7 0
46 7 0
47 7 0
48 7 0
49 7 0
0 8 0
1 8 0
2 8 0
3 8 0
4 8 0
5 8 0
6 8 0
7 8 0
8 8 0
9 8 0
10 8 0
11 8 0
12 8 0
13 8 0
14 8 0
15 8 0
16 8 0
17 8 0
18 8 0
19 8 0
20 8 0
21 8 0
22 8 0
23 8 0
24 8 0
25 8 0
26 8 0
27 8 0
28 8 0
29 8 0
30 8 0
31 8 0
32 8 0
33 8 0
34 8 0
35 8 0
36 8 0
37 8 0
38 8 0
39 8 0
40 8 0
41 8 0
42 8 0
43 8 0
44 8 0
45 8 0
46 8 0
47 8 0
48 8 0
49 8 0
0 9 0
1 9 0
2 9 0
3 9 0
4 9 0
5 9 0
6 9 0
7 9 0
8 9 0
9 9 0
10 9 0
11 9 0
12 9 0
13 9 0
14 9 0
15 9 0
16 9 0
17 9 0
18 9 0
19 9 0
20 9 0
21 9 0
22 9 0
23 9 0
24 9 0
25 9 0
26 9 0
27 9 0
28 9 0
29 9 0
30 9 0
31 9 0
32 9 0
33 9 0
34 9 0
35 9 0
36 9 0
37 9 0
38 9 0
39 9 0
40 9 0
41 9 0
42 9 0
43 9 0
44 9 0
45 9 0
46 9 0
47 9 0
48 9 0
49 9 0
0 0 1
1 0 1
2 0 1
3 0 1
4 0 1
5 0 1
6 0 1
7 0 1
8 0 1
9 0 1
10 0 1
11 0 1
12 0 1
13 0 1
14 0 1
15 0 1
16 0 1
17 0 1
18 0 1
19 0 1
20 0 1
21 0 1
22 0 1
23 0 1
24 0 1
25 0 1
26 0 1
27 0 1
28 0 1
29 0 1
30 0 1
31 0 1
32 0 1
33 0 1
34 0 1
35 0 1
36 0 1
37 0 1
38 0 1
39 0 1
40 0 1
41 0 1
42 0 1
43 0 1
44 0 1
45 0 1
46 0 1
47 0 1
48 0 1
49 0 1
0 1 1
1 1 1
2 1 1
3 1 1
4 1 1
5 1 1
6 1 1
7 1 1
8 1 1
9 1 1
10 1 1
11 1 1
12 1 1
13 1 1
14 1 1
15 1 1
16 1 1
17 1 1
18 1 1
19 1 1
20 1 1
21 1 1
22 1 1
23 1 1
24 1 1
25 1 1
26 1 1
27 1 1
28 1 1
29 1 1
30 1 1
31 1 1
32 1 1
33 1 1
34 1 1
35 1 1
36 1 1
37 1 1
38 1 1
39 1 1
40 1 1
41 1 1
42 1 1
43 1 1
44 1 1
45 1 1
46 1 1
47 1 1
48 1 1
49 1 1
0 2 1
1 2 1
2 2 1
3 2 1
4 2 1
5 2 1
6 2 1
7 2 1
8 2 1
9 2 1
10 2 1
11 2 1
12 2 1
13 2 1
14 2 1
15 2 1
16 2 1
17 2 1
18 2 1
19 2 1
20 2 1
21 2 1
22 2 1
23 2 1
24 2 1
25 2 1
26 2 1
27 2 1
28 2 1
29 2 1
30 2 1
31 2 1
32 2 1
33 2 1
34 2 1
35 2 1
36 2 1
37 2 1
38 2 1
39 2 1
40 2 1
41 2 1
42 2 1
43 2 1
44 2 1
45 2 1
46 2 1
47 2 1
48 2 1
49 2 1
0 3 1
1 3 1
2 3 1
3 3 1
4 3 1
5 3 1
6 3 1
7 3 1
8 3 1
9 3 1
10 3 1
11 3 1
12 3 1
13 3 1
14 3 1
15 3 1
16 3 1
17 3 1
18 3 1
19 3 1
20 3 1
21 3 1
22 3 1
23 3 1
24 3 1
25 3 1
26 3 1
27 3 1
28 3 1
29 3 1
30 3 1
31 3 1
32 3 1
33 3 1
34 3 1
35 3 1
36 3 1
37 3 1
38 3 1
39 3 1
40 3 1
41 3 1
42 3 1
43 3 1
44 3 1
45 3 1
46 3 1
47 3 1
48 3 1
49 3 1
0 4 1
1 4 1
2 4 1
3 4 1
4 4 1
5 4 1
6 4 1
7 4 1
8 4 1
9 4 1
10 4 1
11 4 1
12 4 1
13 4 1
14 4 1
15 4 1
16 4 1
17 4 1
18 4 1
19 4 1
20 4 1
21 4 1
22 4 1
23 4 1
24 4 1
25 4 1
26 4 1
27 4 1
28 4 1
29 4 1
30 4 1
31 4 1
32 4 1
33 4 1
34 4 1
35 4 1
36 4 1
37 4 1
38 4 1
39 4 1
40 4 1
41 4 1
42 4 1
43 4 1
44 4 1
45 4 1
46 4 1
47 4 1
48 4 1
49 4 1
0 5 1
1 5 1
2 5 1
3 5 1
4 5 1
5 5 1
6 5 1
7 5 1
8 5 1
9 5 1
10 5 1
11 5 1
12 5 1
13 5 1
14 5 1
15 5 1
16 5 1
17 5 1
18 5 1
19 5 1
20 5 1
21 5 1
22 5 1
23 5 1
24 5 1
25 5 1
26 5 1
27 5 1
28 5 1
29 5 1
30 5 1
31 5 1
32 5 1
33 5 1
34 5 1
35 5 1
36 5 1
37 5 1
38 5 1
39 5 1
40 5 1
41 5 1
42 5 1
43 5 1
44 5 1
45 5 1
46 5 1
47 5 1
48 5 1
49 5 1
0 6 1
1 6 1
2 6 1
3 6 1
4 6 1
5 6 1
6 6 1
7 6 1
8 6 1
9 6 1
10 6 1
11 6 1
12 6 1
13 6 1
14 6 1
15 6 1
16 6 1
17 6 1
18 6 1
19 6 1
20 6 1
21 6 1
22 6 1
23 6 1
24 6 1
25 6 1
26 6 1
27 6 1
28 6 1
29 6 1
30 6 1
31 6 1
32 6 1
33 6 1
34 6 1
35 6 1
36 6 1
37 6 1
38 6 1
39 6 1
40 6 1
41 6 1
42 6 1
43 6 1
44 6 1
45 6 1
46 6 1
47 6 1
48 6 1
49 6 1
0 7 1
1 7 1
2 7 1
3 7 1
4 7 1
5 7 1
6 7 1
7 7 1
8 7 1
9 7 1
10 7 1
11 7 1
12 7 1
13 7 1
14 7 1
15 7 1
16 7 1
17 7 1
18 7 1
19 7 1
20 7 1
21 7 1
22 7 1
23 7 1
24 7 1
25 7 1
26 7 1
27 7 1
28 7 1
29 7 1
30 7 1
31 7 1
32 7 1
33 7 1
34 7 1
35 7 1
36 7 1
37 7 1
38 7 1
39 7 1
40 7 1
41 7 1
42 7 1
43 7 1
44 7 1
45 7 1
46 7 1
47 7 1
48 7 1
49 7 1
0 8 1
1 8 1
2 8 1
3 8 1
4 8 1
5 8 1
6 8 1
7 8 1
8 8 1
9 8 1
10 8 1
11 8 1
12 8 1
13 8 1
14 8 1
15 8 1
16 8 1
17 8 1
18 8 1
19 8 1
20 8 1
21 8 1
22 8 1
23 8 1
24 8 1
25 8 1
26 8 1
27 8 1
28 8 1
29 8 1
30 8 1
31 8 1
32 8 1
33 8 1
34 8 1
35 8 1
36 8 1
37 8 1
38 8 1
39 8 1
40 8 1
41 8 1
42 8 1
43 8 1
44 8 1
45 8 1
46 8 1
47 8 1
48 8 1
49 8 1
0 9 1
1 9 1
2 9 1
3 9 1
4 9 1
5 9 1
6 9 1
7 9 1
8 9 1
9 9 1
10 9 1
11 9 1
12 9 1
13 9 1
14 9 1
15 9 1
16 9 1
17 9 1
18 9 1
19 9 1
20 9 1
21 9 1
22 9 1
23 9 1
24 9 1
25 9 1
26 9 1
27 9 1
28 9 1
29 9 1
30 9 1
31 9 1
32 9 1
33 9 1
34 9 1
35 9 1
36 9 1
37 9 1
38 9 1
39 9 1
40 9 1
41 9 1
42 9 1
43 9 1
44 9 1
45 9 1
46 9 1
47 9 1
48 9 1
49 9 1
0 0 2
1 0 2
2 0 2
3 0 2
4 0 2
5 0 2
6 0 2
7 0 2
8 0 2
9 0 2
10 0 2
11 0 2
12 0 2
13 0 2
14 0 2
15 0 2
16 0 2
17 0 2
18 0 2
19 0 2
20 0 2
21 0 2
22 0 2
23 0 2
24 0 2
25 0 2
26 0 2
27 0 2
28 0 2
29 0 2
30 0 2
31 0 2
32 0 2
33 0 2
34 0 2
35 0 2
36 0 2
37 0 2
38 0 2
39 0 2
40 0 2
41 0 2
42 0 2
43 0 2
44 0 2
45 0 2
46 0 2
47 0 2
48 0 2
49 0 2
0 1 2
1 1 2
2 1 2
3 1 2
4 1 2
5 1 2
6 1 2
7 1 2
8 1 2
9 1 2
10 1 2
11 1 2
12 1 2
13 1 2
14 1 2
15 1 2
16 1 2
17 1 2
18 1 2
19 1 2
20 1 2
21 1 2
22 1 2
23 1 2
24 1 2
25 1 2
26 1 2
27 1 2
28 1 2
29 1 2
30 1 2
31 1 2
32 1 2
33 1 2
34 1 2
35 1 2
36 1 2
37 1 2
38 1 2
39 1 2
40 1 2
41 1 2
42 1 2
43 1 2
44 1 2
45 1 2
46 1 2
47 1 2
48 1 2
49 1 2
0 2 2
1 2 2
2 2 2
3 2 2
4 2 2
5 2 2
6 2 2
7 2 2
8 2 2
9 2 2
10 2 2
11 2 2
12 2 2
13 2 2
14 2 2
15 2 2
16 2 2
17 2 2
18 2 2
19 2 2
20 2 2
21 2 2
22 2 2
23 2 2
24 2 2
25 2 2
26 2 2
27 2 2
28 2 2
29 2 2
30 2 2
31 2 2
32 2 2
33 2 2
34 2 2
35 2 2
36 2 2
37 2 2
38 2 2
39 2 2
40 2 2
41 2 2
42 2 2
43 2 2
44 2 2
45 2 2
46 2 2
47 2 2
48 2 2
49 2 2
0 3 2
1 3 2
2 3 2
3 3 2
4 3 2
5 3 2
6 3 2
7 3 2
8 3 2
9 3 2
10 3 2
11 3 2
12 3 2
13 3 2
14 3 2
15 3 2
16 3 2
17 3 2
18 3 2
19 3 2
20 3 2
21 3 2
22 3 2
23 3 2
24 3 2
25 3 2
26 3 2
27 3 2
28 3 2
29 3 2
30 3 2
31 3 2
32 3 2
33 3 2
34 3 2
35 3 2
36 3 2
37 3 2
38 3 2
39 3 2
40 3 2
41 3 2
42 3 2
43 3 2
44 3 2
45 3 2
46 3 2
47 3 2
48 3 2
49 3 2
0 4 2
1 4 2
2 4 2
3 4 2
4 4 2
5 4 2
6 4 2
7 4 2
8 4 2
9 4 2
10 4 2
11 4 2
12 4 2
13 4 2
14 4 2
15 4 2
16 4 2
17 4 2
18 4 2
19 4 2
20 4 2
21 4 2
22 4 2
23 4 2
24 4 2
25 4 2
26 4 2
27 4 2
28 4 2
29 4 2
30 4 2
31 4 2
32 4 2
33 4 2
34 4 2
35 4 2
36 4 2
37 4 2
38 4 2
39 4 2
40 4 2
41 4 2
42 4 2
43 4 2
44 4 2
45 4 2
46 4 2
47 4 2
48 4 2
49 4 2
0 5 2
1 5 2
2 5 2
3 5 2
4 5 2
5 5 2
6 5 2
7 5 2
8 5 2
9 5 2
10 5 2
11 5 2
12 5 2
13 5 2
14 5 2
15 5 2
16 5 2
17 5 2
18 5 2
19 5 2
20 5 2
21 5 2
22 5 2
23 5 2
24 5 2
25 5 2
26 5 2
27 5 2
28 5 2
29 5 2
30 5 2
31 5 2
32 5 2
33 5 2
34 5 2
35 5 2
36 5 2
37 5 2
38 5 2
39 5 2
40 5 2
41 5 2
42 5 2
43 5 2
44 5 2
45 5 2
46 5 2
47 5 2
48 5 2
49 5 2
0 6 2
1 6 2
2 6 2
3 6 2
4 6 2
5 6 2
6 6 2
7 6 2
8 6 2
9 6 2
10 6 2
11 6 2
12 6 2
13 6 2
14 6 2
15 6 2
16 6 2
17 6 2
18 6 2
19 6 2
20 6 2
21 6 2
22 6 2
23 6 2
24 6 2
25 6 2
26 6 2
27 6 2
28 6 2
29 6 2
30 6 2
31 6 2
32 6 2
33 6 2
34 6 2
35 6 2
36 6 2
37 6 2
38 6 2
39 6 2
40 6 2
41 6 2
42 6 2
43 6 2
44 6 2
45 6 2
46 6 2
47 6 2
48 6 2
49 6 2
0 7 2
1 7 2
2 7 2
3 7 2
4 7 2
5 7 2
6 7 2
7 7 2
8 7 2
9 7 2
10 7 2
11 7 2
12 7 2
13 7 2
14 7 2
15 7 2
16 7 2
17 7 2
18 7 2
19 7 2
20 7 2
21 7 2
22 7 2
23 7 2
24 7 2
25 7 2
26 7 2
27 7 2
28 7 2
29 7 2
30 7 2
31 7 2
32 7 2
33 7 2
34 7 2
35 7 2
36 7 2
37 7 2
38 7 2
39 7 2
40 7 2
41 7 2
42 7 2
43 7 2
44 7 2
45 7 2
46 7 2
47 7 2
48 7 2
49 7 2
0 8 2
1 8 2
2 8 2
3 8 2
4 8 2
5 8 2
6 8 2
7 8 2
8 8 2
9 8 2
10 8 2
11 8 2
12 8 2
13 8 2
14 8 2
15 8 2
16 8 2
17 8 2
18 8 2
19 8 2
20 8 2
21 8 2
22 8 2
23 8 2
24 8 2
25 8 2
26 8 2
27 8 2
28 8 2
29 8 2
30 8 2
31 8 2
32 8 2
33 8 2
34 8 2
35 8 2
36 8 2
37 8 2
38 8 2
39 8 2
40 8 2
41 8 2
42 8 2
43 8 2
44 8 2
45 8 2
46 8 2
47 8 2
48 8 2
49 8 2
0 9 2
1 9 2
2 9 2
3 9 2
4 9 2
[...]
POINT_DATA 15000
SCALARS sol126 float
LOOKUP_TABLE default
56.4152
56.4122
56.4091
56.4061
56.4031
56.4
56.397
56.3939
56.3909
56.3878
56.3848
56.3817
56.3787
56.3756
56.3726
56.3696
56.3665
56.3635
56.3604
56.3574
56.3543
56.3513
56.3483
56.3452
56.3422
56.3391
56.3361
56.3331
56.33
56.327
56.324
56.3209
56.3179
56.3148
56.3118
56.3088
56.3057
56.3027
56.2997
56.2966
56.2936
56.2906
56.2875
56.2845
56.2815
56.2784
56.2754
56.2724
56.2694
56.2663
56.2633
56.2603
56.2572
56.2542
56.2512
56.2482
56.2451
56.2421
56.2391
56.2361
56.233
56.23
56.227
56.224
56.2209
56.2179
56.2149
56.2119
56.2088
56.2058
56.2028
56.1998
56.1968
56.1937
56.1907
56.1877
56.1847
56.1817
56.1787
56.1756
56.1726
56.1696
56.1666
56.1636
56.1606
56.1575
56.1545
56.1515
56.1485
56.1455
56.1425
56.1395
56.1364
56.1334
56.1304
56.1274
56.1244
56.1214
56.1184
56.1154
56.1124
56.1094
56.1063
56.1033
56.1003
56.0973
56.0943
56.0913
56.0883
56.0853
56.0823
56.0793
56.0763
56.0733
56.0703
56.0673
56.0643
56.0613
56.0583
56.0553
56.0523
56.0493
56.0463
56.0433
56.0403
56.0373
56.0343
56.0313
56.0283
56.0253
56.0223
56.0193
56.0163
56.0133
56.0103
56.0073
56.0043
56.0013
55.9983
55.9953
55.9923
55.9893
55.9864
55.9834
55.9804
55.9774
55.9744
55.9714
55.9684
55.9654
55.9624
55.9594
55.9565
55.9535
55.9505
55.9475
55.9445
55.9415
55.9385
55.9356
55.9326
55.9296
55.9266
55.9236
55.9206
55.9177
55.9147
55.9117
55.9087
55.9057
55.9027
55.8998
55.8968
55.8938
55.8908
55.8878
55.8849
55.8819
55.8789
55.8759
55.873
55.87
55.867
55.864
55.8611
55.8581
55.8551
55.8521
55.8492
55.8462
55.8432
55.8402
55.8373
55.8343
55.8313
55.8284
55.8254
55.8224
55.8194
55.8165
55.8135
55.8105
55.8076
55.8046
55.8016
55.7987
55.7957
55.7927
55.7898
55.7868
55.7838
55.7809
55.7779
55.775
55.772
55.769
55.7661
55.7631
55.7601
55.7572
55.7542
55.7513
55.7483
55.7453
55.7424
55.7394
55.7365
55.7335
55.7305
55.7276
55.7246
55.7217
55.7187
55.7158
55.7128
55.7099
55.7069
55.7039
55.701
55.698
55.6951
55.6921
55.6892
55.6862
55.6833
55.6803
55.6774
55.6744
55.6715
55.6685
55.6656
55.6626
55.6597
55.6567
55.6538
55.6508
55.6479
55.6449
55.642
55.6391
55.6361
55.6332
55.6302
55.6273
55.6243
55.6214
55.6184
55.6155
55.6126
55.6096
55.6067
55.6037
55.6008
55.5979
55.5949
55.592
55.589
55.5861
55.5832
55.5802
55.5773
55.5744
55.5714
55.5685
55.5656
55.5626
55.5597
55.5567
55.5538
55.5509
55.5479
55.545
55.5421
55.5392
55.5362
55.5333
55.5304
55.5274
55.5245
55.5216
55.5186
55.5157
55.5128
55.5099
55.5069
55.504
55.5011
55.4981
55.4952
55.4923
55.4894
55.4864
55.4835
55.4806
55.4777
55.4748
55.4718
55.4689
55.466
55.4631
55.4601
55.4572
55.4543
55.4514
55.4485
55.4455
55.4426
55.4397
55.4368
55.4339
55.431
55.428
55.4251
55.4222
55.4193
55.4164
55.4135
55.4105
55.4076
55.4047
55.4018
55.3989
55.396
55.3931
55.3902
55.3872
55.3843
55.3814
55.3785
55.3756
55.3727
55.3698
55.3669
55.364
55.3611
55.3581
55.3552
55.3523
55.3494
55.3465
55.3436
55.3407
55.3378
55.3349
55.332
55.3291
55.3262
55.3233
55.3204
55.3175
55.3146
55.3117
55.3088
55.3059
55.303
55.3001
55.2972
55.2943
55.2914
55.2885
55.2856
55.2827
55.2798
55.2769
55.274
55.2711
55.2682
55.2653
55.2624
55.2595
55.2566
55.2537
55.2509
55.248
55.2451
55.2422
55.2393
55.2364
55.2335
55.2306
55.2277
55.2248
55.2219
55.2191
55.2162
55.2133
55.2104
55.2075
55.2046
55.2017
55.1989
55.196
55.1931
55.1902
55.1873
55.1844
55.1815
55.1787
55.1758
55.1729
55.17
55.1671
55.1643
55.1614
55.1585
55.1556
55.1527
55.1499
55.147
55.1441
55.1412
55.1383
55.1355
55.1326
55.1297
55.1268
55.124
55.1211
55.1182
55.1153
55.1125
55.1096
55.1067
55.1038
55.101
55.0981
55.0952
55.0924
55.0895
55.0866
55.0837
55.0809
55.078
55.0751
55.0723
55.0694
55.0665
55.0637
55.0608
55.0579
55.0551
55.0522
55.0493
55.0465
55.0436
55.0407
55.0379
55.035
55.0322
55.0293
55.0264
55.0236
55.0207
55.0178
55.015
55.0121
55.0093
55.0064
55.0035
55.0007
54.9978
54.995
54.9921
54.9893
54.9864
54.9835
54.9807
54.9778
54.975
54.9721
54.9693
54.9664
54.9636
54.9607
54.9578
54.955
54.9521
54.9493
54.9464
54.9436
54.9407
54.9379
54.935
54.9322
54.9293
54.9265
54.9236
54.9208
54.918
54.9151
54.9123
54.9094
54.9066
54.9037
54.9009
54.898
54.8952
54.8923
54.8895
54.8867
54.8838
54.881
54.8781
54.8753
54.8724
54.8696
54.8668
54.8639
54.8611
54.8582
54.8554
54.8526
54.8497
54.8469
54.8441
54.8412
54.8384
54.8355
54.8327
54.8299
54.827
54.8242
54.8214
54.8185
54.8157
54.8129
54.81
54.8072
54.8044
54.8015
54.7987
54.7959
54.7931
54.7902
54.7874
54.7846
54.7817
54.7789
54.7761
54.7732
54.7704
54.7676
54.7648
54.7619
54.7591
54.7563
54.7535
54.7506
54.7478
54.745
54.7422
54.7393
54.7365
54.7337
54.7309
54.7281
54.7252
54.7224
54.7196
54.7168
54.714
54.7111
54.7083
54.7055
54.7027
54.6999
54.6971
54.6942
54.6914
54.6886
54.6858
54.683
54.6802
54.6773
54.6745
54.6717
54.6689
54.6661
54.6633
54.6605
54.6577
54.6548
54.652
54.6492
54.6464
54.6436
54.6408
54.638
54.6352
54.6324
54.6296
54.6267
54.6239
54.6211
54.6183
54.6155
54.6127
54.6099
54.6071
54.6043
54.6015
54.5987
54.5959
54.5931
54.5903
54.5875
54.5847
54.5819
54.5791
54.5763
54.5735
54.5707
54.5679
54.5651
54.5623
54.5595
54.5567
54.5539
54.5511
54.5483
54.5455
54.5427
54.5399
54.5371
54.5343
54.5315
54.5287
54.5259
54.5231
54.5204
54.5176
54.5148
54.512
54.5092
54.5064
54.5036
54.5008
54.498
54.4952
54.4924
54.4897
54.4869
54.4841
54.4813
54.4785
54.4757
54.4729
54.4701
54.4674
54.4646
54.4618
54.459
54.4562
54.4534
54.4507
54.4479
54.4451
54.4423
54.4395
54.4367
54.434
54.4312
54.4284
54.4256
54.4228
54.4201
54.4173
54.4145
54.4117
54.409
54.4062
54.4034
54.4006
54.3979
54.3951
54.3923
54.3895
54.3868
54.384
54.3812
54.3784
54.3757
54.3729
54.3701
54.3673
54.3646
54.3618
54.359
54.3563
54.3535
54.3507
54.348
54.3452
54.3424
54.3396
54.3369
54.3341
54.3313
54.3286
54.3258
54.323
54.3203
54.3175
54.3148
54.312
54.3092
54.3065
54.3037
54.3009
54.2982
54.2954
54.2927
54.2899
54.2871
54.2844
54.2816
54.2789
54.2761
54.2733
54.2706
54.2678
54.2651
54.2623
54.2595
54.2568
54.254
54.2513
54.2485
54.2458
54.243
54.2403
54.2375
54.2348
54.232
54.2292
54.2265
54.2237
54.221
54.2182
54.2155
54.2127
54.21
54.2072
54.2045
54.2017
54.199
54.1962
54.1935
54.1908
54.188
54.1853
54.1825
54.1798
54.177
54.1743
54.1715
54.1688
54.166
54.1633
54.1606
54.1578
54.1551
54.1523
54.1496
54.1468
54.1441
54.1414
54.1386
54.1359
54.1332
54.1304
54.1277
54.1249
54.1222
54.1195
54.1167
54.114
54.1113
54.1085
54.1058
54.103
54.1003
54.0976
54.0948
54.0921
54.0894
54.0866
54.0839
54.0812
54.0784
54.0757
54.073
54.0703
54.0675
54.0648
54.0621
54.0593
54.0566
54.0539
54.0512
54.0484
54.0457
54.043
54.0402
54.0375
54.0348
54.0321
54.0293
54.0266
54.0239
54.0212
54.0184
54.0157
54.013
54.0103
54.0076
54.0048
54.0021
53.9994
53.9967
53.994
53.9912
53.9885
53.9858
53.9831
53.9804
53.9776
53.9749
53.9722
53.9695
53.9668
53.9641
53.9614
53.9586
53.9559
53.9532
53.9505
53.9478
53.9451
53.9424
53.9396
53.9369
53.9342
53.9315
53.9288
53.9261
53.9234
53.9207
53.918
53.9153
53.9125
53.9098
53.9071
53.9044
53.9017
53.899
53.8963
53.8936
53.8909
53.8882
53.8855
53.8828
53.8801
53.8774
53.8747
53.872
53.8693
53.8666
53.8639
53.8612
53.8585
53.8558
53.8531
53.8504
53.8477
53.845
53.8423
53.8396
53.8369
53.8342
53.8315
53.8288
53.8261
53.8234
53.8207
53.818
53.8153
53.8126
53.8099
53.8072
53.8045
53.8018
53.7991
53.7964
53.7937
53.7911
53.7884
53.7857
53.783
53.7803
53.7776
53.7749
53.7722
53.7695
53.7669
53.7642
53.7615
53.7588
53.7561
53.7534
53.7507
53.748
53.7454
53.7427
53.74
53.7373
53.7346
53.7319
53.7293
53.7266
53.7239
53.7212
53.7185
53.7159
53.7132
53.7105
53.7078
53.7051
53.7025
53.6998
53.6971
53.6944
53.6917
53.6891
53.6864
53.6837
53.681
53.6784
53.6757
53.673
53.6703
53.6677
53.665
53.6623
53.6596
53.657
53.6543
53.6516
53.649
53.6463
53.6436
53.6409
53.6383
53.6356
53.6329
53.6303
53.6276
53.6249
53.6223
53.6196
53.6169
53.6143
53.6116
53.6089
53.6063
53.6036
53.6009
53.5983
53.5956
53.5929
53.5903
53.5876
53.585
53.5823
53.5796
53.577
53.5743
53.5716
53.569
53.5663
53.5637
53.561
53.5584
53.5557
53.553
53.5504
53.5477
53.5451
53.5424
53.5398
53.5371
53.5344
53.5318
53.5291
53.5265
53.5238
53.5212
53.5185
53.5159
53.5132
53.5106
53.5079
53.5053
53.5026
53.5
53.4973
53.4947
53.492
53.4894
53.4867
53.4841
53.4814
53.4788
53.4761
53.4735
53.4708
53.4682
53.4655
53.4629
53.4602
53.4576
53.455
53.4523
53.4497
53.447
53.4444
53.4417
53.4391
53.4365
53.4338
53.4312
53.4285
53.4259
53.4233
53.4206
53.418
53.4153
53.4127
53.4101
53.4074
53.4048
53.4022
53.3995
53.3969
53.3943
53.3916
53.389
53.3863
53.3837
53.3811
53.3784
53.3758
53.3732
53.3705
53.3679
53.3653
53.3627
53.36
53.3574
53.3548
53.3521
53.3495
53.3469
53.3442
53.3416
53.339
53.3364
53.3337
53.3311
53.3285
53.3259
53.3232
53.3206
53.318
53.3154
53.3127
53.3101
53.3075
53.3049
53.3022
53.2996
53.297
53.2944
53.2918
53.2891
53.2865
53.2839
53.2813
53.2787
53.276
53.2734
53.2708
53.2682
53.2656
53.263
53.2603
53.2577
53.2551
53.2525
53.2499
53.2473
53.2446
53.242
53.2394
53.2368
53.2342
53.2316
53.229
53.2264
53.2237
53.2211
53.2185
53.2159
53.2133
53.2107
53.2081
53.2055
53.2029
53.2003
53.1977
53.195
53.1924
53.1898
53.1872
53.1846
53.182
53.1794
53.1768
53.1742
53.1716
53.169
53.1664
53.1638
53.1612
53.1586
53.156
53.1534
53.1508
53.1482
53.1456
53.143
53.1404
53.1378
53.1352
53.1326
53.13
53.1274
53.1248
53.1222
53.1196
53.117
53.1144
53.1118
53.1092
53.1066
53.104
53.1014
53.0988
53.0963
53.0937
53.0911
53.0885
53.0859
53.0833
53.0807
53.0781
53.0755
53.0729
53.0703
53.0678
53.0652
53.0626
53.06
53.0574
53.0548
53.0522
53.0496
53.0471
53.0445
53.0419
53.0393
53.0367
53.0341
53.0315
53.029
53.0264
53.0238
53.0212
53.0186
53.0161
53.0135
53.0109
53.0083
53.0057
53.0032
53.0006
52.998
52.9954
52.9928
52.9903
52.9877
52.9851
52.9825
52.98
52.9774
52.9748
52.9722
52.9696
52.9671
52.9645
52.9619
52.9594
52.9568
52.9542
52.9516
52.9491
52.9465
52.9439
52.9413
52.9388
52.9362
52.9336
52.9311
52.9285
52.9259
52.9234
52.9208
52.9182
52.9157
52.9131
52.9105
52.908
52.9054
52.9028
52.9003
52.8977
52.8951
52.8926
52.89
52.8874
52.8849
52.8823
52.8798
52.8772
52.8746
52.8721
52.8695
52.867
52.8644
52.8618
52.8593
52.8567
52.8542
52.8516
52.849
52.8465
52.8439
52.8414
52.8388
52.8363
52.8337
52.8312
52.8286
52.826
52.8235
52.8209
52.8184
52.8158
52.8133
52.8107
52.8082
52.8056
52.8031
52.8005
52.798
52.7954
52.7929
52.7903
52.7878
52.7852
52.7827
52.7801
52.7776
52.775
52.7725
52.7699
52.7674
52.7648
52.7623
52.7598
52.7572
52.7547
52.7521
52.7496
52.747
52.7445
52.742
52.7394
52.7369
52.7343
52.7318
52.7293
52.7267
52.7242
52.7216
52.7191
52.7166
52.714
52.7115
52.7089
52.7064
52.7039
52.7013
52.6988
52.6963
52.6937
52.6912
52.6887
52.6861
52.6836
52.6811
52.6785
52.676
52.6735
52.6709
52.6684
52.6659
52.6633
52.6608
52.6583
52.6557
52.6532
52.6507
52.6482
52.6456
52.6431
52.6406
52.638
52.6355
52.633
52.6305
52.6279
52.6254
52.6229
52.6204
52.6178
52.6153
52.6128
52.6103
52.6077
52.6052
52.6027
52.6002
52.5977
52.5951
52.5926
52.5901
52.5876
52.5851
52.5825
52.58
52.5775
52.575
52.5725
52.5699
52.5674
52.5649
52.5624
52.5599
52.5574
52.5548
52.5523
52.5498
52.5473
52.5448
52.5423
52.5398
52.5373
52.5347
52.5322
52.5297
52.5272
52.5247
52.5222
52.5197
52.5172
52.5147
52.5121
52.5096
52.5071
52.5046
52.5021
52.4996
52.4971
52.4946
52.4921
52.4896
52.4871
52.4846
52.4821
52.4796
52.4771
52.4746
52.4721
52.4696
52.467
52.4645
52.462
52.4595
52.457
52.4545
52.452
52.4495
52.447
52.4445
52.442
52.4395
52.437
52.4346
52.4321
52.4296
52.4271
52.4246
52.4221
52.4196
52.4171
52.4146
52.4121
52.4096
52.4071
52.4046
52.4021
52.3996
52.3971
52.3946
52.3921
52.3897
52.3872
52.3847
52.3822
52.3797
52.3772
52.3747
52.3722
52.3697
52.3673
52.3648
52.3623
52.3598
52.3573
52.3548
52.3523
52.3498
52.3474
52.3449
52.3424
52.3399
52.3374
52.3349
52.3325
52.33
52.3275
52.325
52.3225
52.32
52.3176
52.3151
52.3126
52.3101
52.3077
52.3052
52.3027
52.3002
52.2977
52.2953
52.2928
52.2903
52.2878
52.2854
52.2829
52.2804
52.2779
52.2755
52.273
52.2705
52.268
52.2656
52.2631
52.2606
52.2581
52.2557
52.2532
52.2507
52.2483
52.2458
52.2433
52.2408
52.2384
52.2359
52.2334
52.231
52.2285
52.226
52.2236
52.2211
52.2186
52.2162
52.2137
52.2112
52.2088
52.2063
52.2039
52.2014
52.1989
52.1965
52.194
52.1915
52.1891
52.1866
52.1842
52.1817
52.1792
52.1768
52.1743
52.1719
52.1694
52.1669
52.1645
52.162
52.1596
52.1571
52.1546
52.1522
52.1497
52.1473
52.1448
52.1424
52.1399
52.1375
52.135
52.1326
52.1301
52.1276
52.1252
52.1227
52.1203
52.1178
52.1154
52.1129
52.1105
52.108
52.1056
52.1031
52.1007
52.0982
52.0958
52.0933
52.0909
52.0884
52.086
52.0836
52.0811
52.0787
52.0762
52.0738
52.0713
52.0689
52.0664
52.064
52.0616
52.0591
52.0567
52.0542
52.0518
52.0493
52.0469
52.0445
52.042
52.0396
52.0371
52.0347
52.0323
52.0298
52.0274
52.025
52.0225
52.0201
52.0176
52.0152
52.0128
52.0103
52.0079
52.0055
52.003
52.0006
51.9982
51.9957
51.9933
51.9909
51.9884
51.986
51.9836
51.9811
51.9787
51.9763
51.9738
51.9714
51.969
51.9666
51.9641
51.9617
51.9593
51.9568
51.9544
51.952
51.9496
51.9471
51.9447
51.9423
51.9399
51.9374
51.935
51.9326
51.9302
51.9277
51.9253
51.9229
51.9205
51.918
51.9156
51.9132
51.9108
51.9084
51.9059
51.9035
51.9011
51.8987
51.8963
51.8938
51.8914
51.889
51.8866
51.8842
51.8818
51.8793
51.8769
51.8745
51.8721
51.8697
51.8673
51.8649
51.8624
51.86
51.8576
51.8552
51.8528
51.8504
51.848
51.8456
51.8431
51.8407
51.8383
51.8359
51.8335
51.8311
51.8287
51.8263
51.8239
51.8215
51.8191
51.8166
51.8142
51.8118
51.8094
51.807
51.8046
51.8022
51.7998
51.7974
51.795
51.7926
51.7902
51.7878
51.7854
51.783
51.7806
51.7782
51.7758
51.7734
51.771
51.7686
51.7662
51.7638
51.7614
51.759
51.7566
51.7542
51.7518
51.7494
51.747
51.7446
51.7422
51.7398
51.7374
51.735
51.7326
51.7302
51.7278
51.7254
51.7231
51.7207
51.7183
51.7159
51.7135
51.7111
51.7087
51.7063
51.7039
51.7015
51.6991
51.6968
51.6944
51.692
51.6896
51.6872
51.6848
51.6824
51.68
51.6777
51.6753
51.6729
51.6705
51.6681
51.6657
51.6633
51.661
51.6586
51.6562
51.6538
51.6514
51.649
51.6467
51.6443
51.6419
51.6395
51.6371
51.6348
51.6324
51.63
51.6276
51.6252
51.6229
51.6205
51.6181
51.6157
51.6134
51.611
51.6086
51.6062
51.6039
51.6015
51.5991
51.5967
51.5944
51.592
51.5896
51.5872
51.5849
51.5825
51.5801
51.5777
51.5754
51.573
51.5706
51.5683
51.5659
51.5635
51.5612
51.5588
51.5564
51.5541
51.5517
51.5493
51.547
51.5446
51.5422
51.5399
51.5375
51.5351
51.5328
51.5304
51.528
51.5257
51.5233
51.5209
51.5186
51.5162
51.5139
51.5115
51.5091
51.5068
51.5044
51.502
51.4997
51.4973
51.495
51.4926
51.4903
51.4879
51.4855
51.4832
51.4808
51.4785
51.4761
51.4738
51.4714
51.469
51.4667
51.4643
51.462
51.4596
51.4573
51.4549
51.4526
51.4502
51.4479
51.4455
51.4432
51.4408
51.4385
51.4361
51.4338
51.4314
51.4291
51.4267
51.4244
51.422
51.4197
51.4173
51.415
51.4126
51.4103
51.4079
51.4056
51.4032
51.4009
51.3986
51.3962
51.3939
51.3915
51.3892
51.3868
51.3845
51.3822
51.3798
51.3775
51.3751
51.3728
51.3704
51.3681
51.3658
51.3634
51.3611
51.3587
51.3564
51.3541
51.3517
51.3494
51.3471
51.3447
51.3424
51.3401
51.3377
51.3354
51.333
51.3307
51.3284
51.326
51.3237
51.3214
51.319
51.3167
51.3144
51.3121
51.3097
51.3074
51.3051
51.3027
51.3004
51.2981
51.2957
51.2934
51.2911
51.2888
51.2864
51.2841
51.2818
51.2794
51.2771
51.2748
51.2725
51.2701
51.2678
51.2655
51.2632
51.2608
51.2585
51.2562
51.2539
51.2516
51.2492
51.2469
51.2446
51.2423
51.2399
51.2376
51.2353
51.233
51.2307
51.2284
51.226
51.2237
51.2214
51.2191
51.2168
51.2144
51.2121
51.2098
51.2075
51.2052
51.2029
51.2006
51.1982
51.1959
51.1936
51.1913
51.189
51.1867
51.1844
51.182
51.1797
51.1774
51.1751
51.1728
51.1705
51.1682
51.1659
51.1636
51.1613
51.1589
51.1566
51.1543
51.152
51.1497
51.1474
51.1451
51.1428
51.1405
51.1382
51.1359
51.1336
51.1313
51.129
51.1267
51.1244
51.1221
51.1198
51.1175
51.1152
51.1129
51.1105
51.1082
51.1059
51.1036
51.1013
51.099
51.0968
51.0945
51.0922
51.0899
51.0876
51.0853
51.083
51.0807
51.0784
51.0761
51.0738
51.0715
51.0692
51.0669
51.0646
51.0623
51.06
51.0577
51.0554
51.0531
51.0508
51.0486
51.0463
51.044
51.0417
51.0394
51.0371
51.0348
51.0325
51.0302
51.0279
51.0257
51.0234
51.0211
51.0188
51.0165
51.0142
51.0119
51.0096
51.0074
51.0051
51.0028
51.0005
50.9982
50.9959
50.9937
50.9914
50.9891
50.9868
50.9845
50.9822
50.98
50.9777
50.9754
50.9731
50.9708
50.9686
50.9663
50.964
50.9617
50.9595
50.9572
50.9549
50.9526
50.9503
50.9481
50.9458
50.9435
50.9412
50.939
50.9367
50.9344
50.9321
50.9299
50.9276
50.9253
50.923
50.9208
50.9185
50.9162
50.914
50.9117
50.9094
50.9072
50.9049
50.9026
50.9003
50.8981
50.8958
50.8935
50.8913
50.889
50.8867
50.8845
50.8822
50.8799
50.8777
50.8754
50.8731
50.8709
50.8686
50.8663
50.8641
50.8618
50.8596
50.8573
50.855
50.8528
50.8505
50.8483
50.846
50.8437
50.8415
50.8392
50.837
50.8347
50.8324
50.8302
50.8279
50.8257
50.8234
50.8211
50.8189
50.8166
50.8144
50.8121
50.8099
50.8076
50.8054
50.8031
50.8008
50.7986
50.7963
50.7941
50.7918
50.7896
50.7873
50.7851
50.7828
50.7806
50.7783
50.7761
50.7738
50.7716
50.7693
50.7671
50.7648
50.7626
50.7603
50.7581
50.7558
50.7536
50.7514
50.7491
50.7469
50.7446
50.7424
50.7401
50.7379
50.7356
50.7334
50.7312
50.7289
50.7267
50.7244
50.7222
50.7199
50.7177
50.7155
50.7132
50.711
50.7087
50.7065
50.7043
50.702
50.6998
50.6975
50.6953
50.6931
50.6908
50.6886
50.6864
50.6841
50.6819
50.6797
50.6774
50.6752
50.673
50.6707
50.6685
50.6663
50.664
50.6618
50.6596
50.6573
50.6551
50.6529
50.6506
50.6484
50.6462
50.6439
50.6417
50.6395
50.6373
50.635
50.6328
50.6306
50.6283
50.6261
50.6239
50.6217
50.6194
50.6172
50.615
50.6128
50.6105
50.6083
50.6061
50.6039
50.6016
50.5994
50.5972
50.595
50.5928
50.5905
50.5883
50.5861
50.5839
50.5817
50.5794
50.5772
50.575
50.5728
50.5706
50.5683
50.5661
50.5639
50.5617
50.5595
50.5573
50.555
50.5528
50.5506
50.5484
50.5462
50.544
50.5418
50.5395
50.5373
50.5351
50.5329
50.5307
50.5285
50.5263
50.5241
50.5218
50.5196
50.5174
50.5152
50.513
50.5108
50.5086
50.5064
50.5042
50.502
50.4998
50.4975
50.4953
50.4931
50.4909
50.4887
50.4865
50.4843
50.4821
50.4799
50.4777
50.4755
50.4733
50.4711
50.4689
50.4667
50.4645
50.4623
50.4601
50.4579
50.4557
50.4535
50.4513
50.4491
50.4469
50.4447
50.4425
50.4403
50.4381
50.4359
50.4337
50.4315
50.4293
50.4271
50.4249
50.4227
50.4205
50.4183
50.4161
50.4139
50.4117
50.4096
50.4074
50.4052
50.403
50.4008
50.3986
50.3964
50.3942
50.392
50.3898
50.3876
50.3854
50.3833
50.3811
50.3789
50.3767
50.3745
50.3723
50.3701
50.3679
50.3658
50.3636
50.3614
50.3592
50.357
50.3548
50.3526
50.3505
50.3483
50.3461
50.3439
50.3417
50.3395
50.3374
50.3352
50.333
50.3308
50.3286
50.3265
50.3243
50.3221
50.3199
50.3177
50.3156
50.3134
50.3112
50.309
50.3069
50.3047
50.3025
50.3003
50.2981
50.296
50.2938
50.2916
50.2894
50.2873
50.2851
50.2829
50.2808
50.2786
50.2764
50.2742
50.2721
50.2699
50.2677
50.2656
50.2634
50.2612
50.259
50.2569
50.2547
50.2525
50.2504
50.2482
50.246
50.2439
50.2417
50.2395
50.2374
50.2352
50.233
50.2309
50.2287
50.2265
50.2244
50.2222
50.22
50.2179
50.2157
50.2136
50.2114
50.2092
50.2071
50.2049
50.2027
50.2006
50.1984
50.1963
50.1941
50.1919
50.1898
50.1876
50.1855
50.1833
50.1812
50.179
50.1768
50.1747
50.1725
50.1704
50.1682
50.1661
50.1639
50.1618
50.1596
50.1574
50.1553
50.1531
50.151
50.1488
50.1467
50.1445
50.1424
50.1402
50.1381
50.1359
50.1338
50.1316
50.1295
50.1273
50.1252
50.123
50.1209
50.1187
50.1166
50.1144
50.1123
50.1102
50.108
50.1059
50.1037
50.1016
50.0994
50.0973
50.0951
50.093
50.0909
50.0887
50.0866
50.0844
50.0823
50.0801
50.078
50.0759
50.0737
50.0716
50.0694
50.0673
50.0652
50.063
50.0609
50.0587
50.0566
50.0545
50.0523
50.0502
50.0481
50.0459
50.0438
50.0416
50.0395
50.0374
50.0352
50.0331
50.031
50.0288
50.0267
50.0246
50.0224
50.0203
50.0182
50.0161
50.0139
50.0118
50.0097
50.0075
50.0054
50.0033
50.0011
49.999
49.9969
49.9948
49.9926
49.9905
49.9884
49.9862
49.9841
49.982
49.9799
49.9777
49.9756
49.9735
49.9714
49.9692
49.9671
49.965
49.9629
49.9608
49.9586
49.9565
49.9544
49.9523
49.9501
49.948
49.9459
49.9438
49.9417
49.9395
49.9374
49.9353
49.9332
49.9311
49.929