# vtk DataFile Version 2.0
vtk output
ASCII
DATASET STRUCTURED_GRID
DIMENSIONS 50 10 30
POINTS 15000 float
0 0 0
1 0 0
2 0 0
3 0 0
4 0 0
5 0 0
6 0 0
7 0 0
8 0 0
9 0 0
10 0 0
11 0 0
12 0 0
13 0 0
14 0 0
15 0 0
16 0 0
17 0 0
18 0 0
19 0 0
20 0 0
21 0 0
22 0 0
23 0 0
24 0 0
25 0 0
26 0 0
27 0 0
28 0 0
29 0 0
30 0 0
31 0 0
32 0 0
33 0 0
34 0 0
35 0 0
36 0 0
37 0 0
38 0 0
39 0 0
40 0 0
41 0 0
42 0 0
43 0 0
44 0 0
45 0 0
46 0 0
47 0 0
48 0 0
49 0 0
0 1 0
1 1 0
2 1 0
3 1 0
4 1 0
5 1 0
6 1 0
7 1 0
8 1 0
9 1 0
10 1 0
11 1 0
12 1 0
13 1 0
14 1 0
15 1 0
16 1 0
17 1 0
18 1 0
19 1 0
20 1 0
21 1 0
22 1 0
23 1 0
24 1 0
25 1 0
26 1 0
27 1 0
28 1 0
29 1 0
30 1 0
31 1 0
32 1 0
33 1 0
34 1 0
35 1 0
36 1 0
37 1 0
38 1 0
39 1 0
40 1 0
41 1 0
42 1 0
43 1 0
44 1 0
45 1 0
46 1 0
47 1 0
48 1 0
49 1 0
0 2 0
1 2 0
2 2 0
3 2 0
4 2 0
5 2 0
6 2 0
7 2 0
8 2 0
9 2 0
10 2 0
11 2 0
12 2 0
13 2 0
14 2 0
15 2 0
16 2 0
17 2 0
18 2 0
19 2 0
20 2 0
21 2 0
22 2 0
23 2 0
24 2 0
25 2 0
26 2 0
27 2 0
28 2 0
29 2 0
30 2 0
31 2 0
32 2 0
33 2 0
34 2 0
35 2 0
36 2 0
37 2 0
38 2 0
39 2 0
40 2 0
41 2 0
42 2 0
43 2 0
44 2 0
45 2 0
46 2 0
47 2 0
48 2 0
49 2 0
0 3 0
1 3 0
2 3 0
3 3 0
4 3 0
5 3 0
6 3 0
7 3 0
8 3 0
9 3 0
10 3 0
11 3 0
12 3 0
13 3 0
14 3 0
15 3 0
16 3 0
17 3 0
18 3 0
19 3 0
20 3 0
21 3 0
22 3 0
23 3 0
24 3 0
25 3 0
26 3 0
27 3 0
28 3 0
29 3 0
30 3 0
31 3 0
32 3 0
33 3 0
34 3 0
35 3 0
36 3 0
37 3 0
38 3 0
39 3 0
40 3 0
41 3 0
42 3 0
43 3 0
44 3 0
45 3 0
46 3 0
47 3 0
48 3 0
49 3 0
0 4 0
1 4 0
2 4 0
3 4 0
4 4 0
5 4 0
6 4 0
7 4 0
8 4 0
9 4 0
10 4 0
11 4 0
12 4 0
13 4 0
14 4 0
15 4 0
16 4 0
17 4 0
18 4 0
19 4 0
20 4 0
21 4 0
22 4 0
23 4 0
24 4 0
25 4 0
26 4 0
27 4 0
28 4 0
29 4 0
30 4 0
31 4 0
32 4 0
33 4 0
34 4 0
35 4 0
36 4 0
37 4 0
38 4 0
39 4 0
40 4 0
41 4 0
42 4 0
43 4 0
44 4 0
45 4 0
46 4 0
47 4 0
48 4 0
49 4 0
0 5 0
1 5 0
2 5 0
3 5 0
4 5 0
5 5 0
6 5 0
7 5 0
8 5 0
9 5 0
10 5 0
11 5 0
12 5 0
13 5 0
14 5 0
15 5 0
16 5 0
17 5 0
18 5 0
19 5 0
20 5 0
21 5 0
22 5 0
23 5 0
24 5 0
25 5 0
26 5 0
27 5 0
28 5 0
29 5 0
30 5 0
31 5 0
32 5 0
33 5 0
34 5 0
35 5 0
36 5 0
37 5 0
38 5 0
39 5 0
40 5 0
41 5 0
42 5 0
43 5 0
44 5 0
45 5 0
46 5 0
47 5 0
48 5 0
49 5 0
0 6 0
1 6 0
2 6 0
3 6 0
4 6 0
5 6 0
6 6 0
7 6 0
8 6 0
9 6 0
10 6 0
11 6 0
12 6 0
13 6 0
14 6 0
15 6 0
16 6 0
17 6 0
18 6 0
19 6 0
20 6 0
21 6 0
22 6 0
23 6 0
24 6 0
25 6 0
26 6 0
27 6 0
28 6 0
29 6 0
30 6 0
31 6 0
32 6 0
33 6 0
34 6 0
35 6 0
36 6 0
37 6 0
38 6 0
39 6 0
40 6 0
41 6 0
42 6 0
43 6 0
44 6 0
45 6 0
46 6 0
47 6 0
48 6 0
49 6 0
0 7 0
1 7 0
2 7 0
3 7 0
4 7 0
5 7 0
6 7 0
7 7 0
8 7 0
9 7 0
10 7 0
11 7 0
12 7 0
13 7 0
14 7 0
15 7 0
16 7 0
17 7 0
18 7 0
19 7 0
20 7 0
21 7 0
22 7 0
23 7 0
24 7 0
25 7 0
26 7 0
27 7 0
28 7 0
29 7 0
30 7 0
31 7 0
32 7 0
33 7 0
34 7 0
35 7 0
36 7 0
37 7 0
38 7 0
39 7 0
40 7 0
41 7 0
42 7 0
43 7 0
44 7 0
45 7 0
46 7 0
47 7 0
48 7 0
49 7 0
0 8 0
1 8 0
2 8 0
3 8 0
4 8 0
5 8 0
6 8 0
7 8 0
8 8 0
9 8 0
10 8 0
11 8 0
12 8 0
13 8 0
14 8 0
15 8 0
16 8 0
17 8 0
18 8 0
19 8 0
20 8 0
21 8 0
22 8 0
23 8 0
24 8 0
25 8 0
26 8 0
27 8 0
28 8 0
29 8 0
30 8 0
31 8 0
32 8 0
33 8 0
34 8 0
35 8 0
36 8 0
37 8 0
38 8 0
39 8 0
40 8 0
41 8 0
42 8 0
43 8 0
44 8 0
45 8 0
46 8 0
47 8 0
48 8 0
49 8 0
0 9 0
1 9 0
2 9 0
3 9 0
4 9 0
5 9 0
6 9 0
7 9 0
8 9 0
9 9 0
10 9 0
11 9 0
12 9 0
13 9 0
14 9 0
15 9 0
16 9 0
17 9 0
18 9 0
19 9 0
20 9 0
21 9 0
22 9 0
23 9 0
24 9 0
25 9 0
26 9 0
27 9 0
28 9 0
29 9 0
30 9 0
31 9 0
32 9 0
33 9 0
34 9 0
35 9 0
36 9 0
37 9 0
38 9 0
39 9 0
40 9 0
41 9 0
42 9 0
43 9 0
44 9 0
45 9 0
46 9 0
47 9 0
48 9 0
49 9 0
0 0 1
1 0 1
2 0 1
3 0 1
4 0 1
5 0 1
6 0 1
7 0 1
8 0 1
9 0 1
10 0 1
11 0 1
12 0 1
13 0 1
14 0 1
15 0 1
16 0 1
17 0 1
18 0 1
19 0 1
20 0 1
21 0 1
22 0 1
23 0 1
24 0 1
25 0 1
26 0 1
27 0 1
28 0 1
29 0 1
30 0 1
31 0 1
32 0 1
33 0 1
34 0 1
35 0 1
36 0 1
37 0 1
38 0 1
39 0 1
40 0 1
41 0 1
42 0 1
43 0 1
44 0 1
45 0 1
46 0 1
47 0 1
48 0 1
49 0 1
0 1 1
1 1 1
2 1 1
3 1 1
4 1 1
5 1 1
6 1 1
7 1 1
8 1 1
9 1 1
10 1 1
11 1 1
12 1 1
13 1 1
14 1 1
15 1 1
16 1 1
17 1 1
18 1 1
19 1 1
20 1 1
21 1 1
22 1 1
23 1 1
24 1 1
25 1 1
26 1 1
27 1 1
28 1 1
29 1 1
30 1 1
31 1 1
32 1 1
33 1 1
34 1 1
35 1 1
36 1 1
37 1 1
38 1 1
39 1 1
40 1 1
41 1 1
42 1 1
43 1 1
44 1 1
45 1 1
46 1 1
47 1 1
48 1 1
49 1 1
0 2 1
1 2 1
2 2 1
3 2 1
4 2 1
5 2 1
6 2 1
7 2 1
8 2 1
9 2 1
10 2 1
11 2 1
12 2 1
13 2 1
14 2 1
15 2 1
16 2 1
17 2 1
18 2 1
19 2 1
20 2 1
21 2 1
22 2 1
23 2 1
24 2 1
25 2 1
26 2 1
27 2 1
28 2 1
29 2 1
30 2 1
31 2 1
32 2 1
33 2 1
34 2 1
35 2 1
36 2 1
37 2 1
38 2 1
39 2 1
40 2 1
41 2 1
42 2 1
43 2 1
44 2 1
45 2 1
46 2 1
47 2 1
48 2 1
49 2 1
0 3 1
1 3 1
2 3 1
3 3 1
4 3 1
5 3 1
6 3 1
7 3 1
8 3 1
9 3 1
10 3 1
11 3 1
12 3 1
13 3 1
14 3 1
15 3 1
16 3 1
17 3 1
18 3 1
19 3 1
20 3 1
21 3 1
22 3 1
23 3 1
24 3 1
25 3 1
26 3 1
27 3 1
28 3 1
29 3 1
30 3 1
31 3 1
32 3 1
33 3 1
34 3 1
35 3 1
36 3 1
37 3 1
38 3 1
39 3 1
40 3 1
41 3 1
42 3 1
43 3 1
44 3 1
45 3 1
46 3 1
47 3 1
48 3 1
49 3 1
0 4 1
1 4 1
2 4 1
3 4 1
4 4 1
5 4 1
6 4 1
7 4 1
8 4 1
9 4 1
10 4 1
11 4 1
12 4 1
13 4 1
14 4 1
15 4 1
16 4 1
17 4 1
18 4 1
19 4 1
20 4 1
21 4 1
22 4 1
23 4 1
24 4 1
25 4 1
26 4 1
27 4 1
28 4 1
29 4 1
30 4 1
31 4 1
32 4 1
33 4 1
34 4 1
35 4 1
36 4 1
37 4 1
38 4 1
39 4 1
40 4 1
41 4 1
42 4 1
43 4 1
44 4 1
45 4 1
46 4 1
47 4 1
48 4 1
49 4 1
0 5 1
1 5 1
2 5 1
3 5 1
4 5 1
5 5 1
6 5 1
7 5 1
8 5 1
9 5 1
10 5 1
11 5 1
12 5 1
13 5 1
14 5 1
15 5 1
16 5 1
17 5 1
18 5 1
19 5 1
20 5 1
21 5 1
22 5 1
23 5 1
24 5 1
25 5 1
26 5 1
27 5 1
28 5 1
29 5 1
30 5 1
31 5 1
32 5 1
33 5 1
34 5 1
35 5 1
36 5 1
37 5 1
38 5 1
39 5 1
40 5 1
41 5 1
42 5 1
43 5 1
44 5 1
45 5 1
46 5 1
47 5 1
48 5 1
49 5 1
0 6 1
1 6 1
2 6 1
3 6 1
4 6 1
5 6 1
6 6 1
7 6 1
8 6 1
9 6 1
10 6 1
11 6 1
12 6 1
13 6 1
14 6 1
15 6 1
16 6 1
17 6 1
18 6 1
19 6 1
20 6 1
21 6 1
22 6 1
23 6 1
24 6 1
25 6 1
26 6 1
27 6 1
28 6 1
29 6 1
30 6 1
31 6 1
32 6 1
33 6 1
34 6 1
35 6 1
36 6 1
37 6 1
38 6 1
39 6 1
40 6 1
41 6 1
42 6 1
43 6 1
44 6 1
45 6 1
46 6 1
47 6 1
48 6 1
49 6 1
0 7 1
1 7 1
2 7 1
3 7 1
4 7 1
5 7 1
6 7 1
7 7 1
8 7 1
9 7 1
10 7 1
11 7 1
12 7 1
13 7 1
14 7 1
15 7 1
16 7 1
17 7 1
18 7 1
19 7 1
20 7 1
21 7 1
22 7 1
23 7 1
24 7 1
25 7 1
26 7 1
27 7 1
28 7 1
29 7 1
30 7 1
31 7 1
32 7 1
33 7 1
34 7 1
35 7 1
36 7 1
37 7 1
38 7 1
39 7 1
40 7 1
41 7 1
42 7 1
43 7 1
44 7 1
45 7 1
46 7 1
47 7 1
48 7 1
49 7 1
0 8 1
1 8 1
2 8 1
3 8 1
4 8 1
5 8 1
6 8 1
7 8 1
8 8 1
9 8 1
10 8 1
11 8 1
12 8 1
13 8 1
14 8 1
15 8 1
16 8 1
17 8 1
18 8 1
19 8 1
20 8 1
21 8 1
22 8 1
23 8 1
24 8 1
25 8 1
26 8 1
27 8 1
28 8 1
29 8 1
30 8 1
31 8 1
32 8 1
33 8 1
34 8 1
35 8 1
36 8 1
37 8 1
38 8 1
39 8 1
40 8 1
41 8 1
42 8 1
43 8 1
44 8 1
45 8 1
46 8 1
47 8 1
48 8 1
49 8 1
0 9 1
1 9 1
2 9 1
3 9 1
4 9 1
5 9 1
6 9 1
7 9 1
8 9 1
9 9 1
10 9 1
11 9 1
12 9 1
13 9 1
14 9 1
15 9 1
16 9 1
17 9 1
18 9 1
19 9 1
20 9 1
21 9 1
22 9 1
23 9 1
24 9 1
25 9 1
26 9 1
27 9 1
28 9 1
29 9 1
30 9 1
31 9 1
32 9 1
33 9 1
34 9 1
35 9 1
36 9 1
37 9 1
38 9 1
39 9 1
40 9 1
41 9 1
42 9 1
43 9 1
44 9 1
45 9 1
46 9 1
47 9 1
48 9 1
49 9 1
0 0 2
1 0 2
2 0 2
3 0 2
4 0 2
5 0 2
6 0 2
7 0 2
8 0 2
9 0 2
10 0 2
11 0 2
12 0 2
13 0 2
14 0 2
15 0 2
16 0 2
17 0 2
18 0 2
19 0 2
20 0 2
21 0 2
22 0 2
23 0 2
24 0 2
25 0 2
26 0 2
27 0 2
28 0 2
29 0 2
30 0 2
31 0 2
32 0 2
33 0 2
34 0 2
35 0 2
36 0 2
37 0 2
38 0 2
39 0 2
40 0 2
41 0 2
42 0 2
43 0 2
44 0 2
45 0 2
46 0 2
47 0 2
48 0 2
49 0 2
0 1 2
1 1 2
2 1 2
3 1 2
4 1 2
5 1 2
6 1 2
7 1 2
8 1 2
9 1 2
10 1 2
11 1 2
12 1 2
13 1 2
14 1 2
15 1 2
16 1 2
17 1 2
18 1 2
19 1 2
20 1 2
21 1 2
22 1 2
23 1 2
24 1 2
25 1 2
26 1 2
27 1 2
28 1 2
29 1 2
30 1 2
31 1 2
32 1 2
33 1 2
34 1 2
35 1 2
36 1 2
37 1 2
38 1 2
39 1 2
40 1 2
41 1 2
42 1 2
43 1 2
44 1 2
45 1 2
46 1 2
47 1 2
48 1 2
49 1 2
0 2 2
1 2 2
2 2 2
3 2 2
4 2 2
5 2 2
6 2 2
7 2 2
8 2 2
9 2 2
10 2 2
11 2 2
12 2 2
13 2 2
14 2 2
15 2 2
16 2 2
17 2 2
18 2 2
19 2 2
20 2 2
21 2 2
22 2 2
23 2 2
24 2 2
25 2 2
26 2 2
27 2 2
28 2 2
29 2 2
30 2 2
31 2 2
32 2 2
33 2 2
34 2 2
35 2 2
36 2 2
37 2 2
38 2 2
39 2 2
40 2 2
41 2 2
42 2 2
43 2 2
44 2 2
45 2 2
46 2 2
47 2 2
48 2 2
49 2 2
0 3 2
1 3 2
2 3 2
3 3 2
4 3 2
5 3 2
6 3 2
7 3 2
8 3 2
9 3 2
10 3 2
11 3 2
12 3 2
13 3 2
14 3 2
15 3 2
16 3 2
17 3 2
18 3 2
19 3 2
20 3 2
21 3 2
22 3 2
23 3 2
24 3 2
25 3 2
26 3 2
27 3 2
28 3 2
29 3 2
30 3 2
31 3 2
32 3 2
33 3 2
34 3 2
35 3 2
36 3 2
37 3 2
38 3 2
39 3 2
40 3 2
41 3 2
42 3 2
43 3 2
44 3 2
45 3 2
46 3 2
47 3 2
48 3 2
49 3 2
0 4 2
1 4 2
2 4 2
3 4 2
4 4 2
5 4 2
6 4 2
7 4 2
8 4 2
9 4 2
10 4 2
11 4 2
12 4 2
13 4 2
14 4 2
15 4 2
16 4 2
17 4 2
18 4 2
19 4 2
20 4 2
21 4 2
22 4 2
23 4 2
24 4 2
25 4 2
26 4 2
27 4 2
28 4 2
29 4 2
30 4 2
31 4 2
32 4 2
33 4 2
34 4 2
35 4 2
36 4 2
37 4 2
38 4 2
39 4 2
40 4 2
41 4 2
42 4 2
43 4 2
44 4 2
45 4 2
46 4 2
47 4 2
48 4 2
49 4 2
0 5 2
1 5 2
2 5 2
3 5 2
4 5 2
5 5 2
6 5 2
7 5 2
8 5 2
9 5 2
10 5 2
11 5 2
12 5 2
13 5 2
14 5 2
15 5 2
16 5 2
17 5 2
18 5 2
19 5 2
20 5 2
21 5 2
22 5 2
23 5 2
24 5 2
25 5 2
26 5 2
27 5 2
28 5 2
29 5 2
30 5 2
31 5 2
32 5 2
33 5 2
34 5 2
35 5 2
36 5 2
37 5 2
38 5 2
39 5 2
40 5 2
41 5 2
42 5 2
43 5 2
44 5 2
45 5 2
46 5 2
47 5 2
48 5 2
49 5 2
0 6 2
1 6 2
2 6 2
3 6 2
4 6 2
5 6 2
6 6 2
7 6 2
8 6 2
9 6 2
10 6 2
11 6 2
12 6 2
13 6 2
14 6 2
15 6 2
16 6 2
17 6 2
18 6 2
19 6 2
20 6 2
21 6 2
22 6 2
23 6 2
24 6 2
25 6 2
26 6 2
27 6 2
28 6 2
29 6 2
30 6 2
31 6 2
32 6 2
33 6 2
34 6 2
35 6 2
36 6 2
37 6 2
38 6 2
39 6 2
40 6 2
41 6 2
42 6 2
43 6 2
44 6 2
45 6 2
46 6 2
47 6 2
48 6 2
49 6 2
0 7 2
1 7 2
2 7 2
3 7 2
4 7 2
5 7 2
6 7 2
7 7 2
8 7 2
9 7 2
10 7 2
11 7 2
12 7 2
13 7 2
14 7 2
15 7 2
16 7 2
17 7 2
18 7 2
19 7 2
20 7 2
21 7 2
22 7 2
23 7 2
24 7 2
25 7 2
26 7 2
27 7 2
28 7 2
29 7 2
30 7 2
31 7 2
32 7 2
33 7 2
34 7 2
35 7 2
36 7 2
37 7 2
38 7 2
39 7 2
40 7 2
41 7 2
42 7 2
43 7 2
44 7 2
45 7 2
46 7 2
47 7 2
48 7 2
49 7 2
0 8 2
1 8 2
2 8 2
3 8 2
4 8 2
5 8 2
6 8 2
7 8 2
8 8 2
9 8 2
10 8 2
11 8 2
12 8 2
13 8 2
14 8 2
15 8 2
16 8 2
17 8 2
18 8 2
19 8 2
20 8 2
21 8 2
22 8 2
23 8 2
24 8 2
25 8 2
26 8 2
27 8 2
28 8 2
29 8 2
30 8 2
31 8 2
32 8 2
33 8 2
34 8 2
35 8 2
36 8 2
37 8 2
38 8 2
39 8 2
40 8 2
41 8 2
42 8 2
43 8 2
44 8 2
45 8 2
46 8 2
47 8 2
48 8 2
49 8 2
0 9 2
1 9 2
2 9 2
3 9 2
4 9 2
[...]
POINT_DATA 15000
SCALARS sol14 float
LOOKUP_TABLE default
36.5588
36.5558
36.5527
36.5497
36.5466
36.5436
36.5405
36.5375
36.5344
36.5314
36.5283
36.5253
36.5223
36.5192
36.5162
36.5131
36.5101
36.507
36.504
36.501
36.4979
36.4949
36.4918
36.4888
36.4858
36.4827
36.4797
36.4766
36.4736
36.4706
36.4675
36.4645
36.4615
36.4584
36.4554
36.4524
36.4493
36.4463
36.4433
36.4402
36.4372
36.4342
36.4311
36.4281
36.4251
36.422
36.419
36.416
36.413
36.4099
36.4069
36.4039
36.4009
36.3978
36.3948
36.3918
36.3888
36.3857
36.3827
36.3797
36.3767
36.3736
36.3706
36.3676
36.3646
36.3615
36.3585
36.3555
36.3525
36.3495
36.3465
36.3434
36.3404
36.3374
36.3344
36.3314
36.3283
36.3253
36.3223
36.3193
36.3163
36.3133
36.3103
36.3073
36.3042
36.3012
36.2982
36.2952
36.2922
36.2892
36.2862
36.2832
36.2802
36.2771
36.2741
36.2711
36.2681
36.2651
36.2621
36.2591
36.2561
36.2531
36.2501
36.2471
36.2441
36.2411
36.2381
36.2351
36.2321
36.2291
36.2261
36.2231
36.2201
36.2171
36.2141
36.2111
36.2081
36.2051
36.2021
36.1991
36.1961
36.1931
36.1901
36.1871
36.1841
36.1811
36.1781
36.1751
36.1721
36.1691
36.1661
36.1631
36.1602
36.1572
36.1542
36.1512
36.1482
36.1452
36.1422
36.1392
36.1362
36.1332
36.1303
36.1273
36.1243
36.1213
36.1183
36.1153
36.1123
36.1094
36.1064
36.1034
36.1004
36.0974
36.0944
36.0915
36.0885
36.0855
36.0825
36.0795
36.0766
36.0736
36.0706
36.0676
36.0647
36.0617
36.0587
36.0557
36.0527
36.0498
36.0468
36.0438
36.0408
36.0379
36.0349
36.0319
36.029
36.026
36.023
36.02
36.0171
36.0141
36.0111
36.0082
36.0052
36.0022
35.9993
35.9963
35.9933
35.9904
35.9874
35.9844
35.9815
35.9785
35.9755
35.9726
35.9696
35.9666
35.9637
35.9607
35.9577
35.9548
35.9518
35.9489
35.9459
35.9429
35.94
35.937
35.9341
35.9311
35.9282
35.9252
35.9222
35.9193
35.9163
35.9134
35.9104
35.9075
35.9045
35.9016
35.8986
35.8956
35.8927
35.8897
35.8868
35.8838
35.8809
35.8779
35.875
35.872
35.8691
35.8661
35.8632
35.8602
35.8573
35.8543
35.8514
35.8485
35.8455
35.8426
35.8396
35.8367
35.8337
35.8308
35.8278
35.8249
35.822
35.819
35.8161
35.8131
35.8102
35.8073
35.8043
35.8014
35.7984
35.7955
35.7926
35.7896
35.7867
35.7838
35.7808
35.7779
35.7749
35.772
35.7691
35.7661
35.7632
35.7603
35.7573
35.7544
35.7515
35.7485
35.7456
35.7427
35.7398
35.7368
35.7339
35.731
35.728
35.7251
35.7222
35.7193
35.7163
35.7134
35.7105
35.7076
35.7046
35.7017
35.6988
35.6959
35.6929
35.69
35.6871
35.6842
35.6812
35.6783
35.6754
35.6725
35.6696
35.6666
35.6637
35.6608
35.6579
35.655
35.6521
35.6491
35.6462
35.6433
35.6404
35.6375
35.6346
35.6316
35.6287
35.6258
35.6229
35.62
35.6171
35.6142
35.6113
35.6083
35.6054
35.6025
35.5996
35.5967
35.5938
35.5909
35.588
35.5851
35.5822
35.5793
35.5764
35.5734
35.5705
35.5676
35.5647
35.5618
35.5589
35.556
35.5531
35.5502
35.5473
35.5444
35.5415
35.5386
35.5357
35.5328
35.5299
35.527
35.5241
35.5212
35.5183
35.5154
35.5125
35.5096
35.5067
35.5038
35.5009
35.4981
35.4952
35.4923
35.4894
35.4865
35.4836
35.4807
35.4778
35.4749
35.472
35.4691
35.4662
35.4634
35.4605
35.4576
35.4547
35.4518
35.4489
35.446
35.4431
35.4403
35.4374
35.4345
35.4316
35.4287
35.4258
35.4229
35.4201
35.4172
35.4143
35.4114
35.4085
35.4057
35.4028
35.3999
35.397
35.3941
35.3913
35.3884
35.3855
35.3826
35.3797
35.3769
35.374
35.3711
35.3682
35.3654
35.3625
35.3596
35.3567
35.3539
35.351
35.3481
35.3453
35.3424
35.3395
35.3366
35.3338
35.3309
35.328
35.3252
35.3223
35.3194
35.3166
35.3137
35.3108
35.308
35.3051
35.3022
35.2994
35.2965
35.2936
35.2908
35.2879
35.285
35.2822
35.2793
35.2765
35.2736
35.2707
35.2679
35.265
35.2622
35.2593
35.2564
35.2536
35.2507
35.2479
35.245
35.2422
35.2393
35.2364
35.2336
35.2307
35.2279
35.225
35.2222
35.2193
35.2165
35.2136
35.2108
35.2079
35.2051
35.2022
35.1994
35.1965
35.1937
35.1908
35.188
35.1851
35.1823
35.1794
35.1766
35.1737
35.1709
35.168
35.1652
35.1623
35.1595
35.1567
35.1538
35.151
35.1481
35.1453
35.1424
35.1396
35.1368
35.1339
35.1311
35.1282
35.1254
35.1226
35.1197
35.1169
35.114
35.1112
35.1084
35.1055
35.1027
35.0999
35.097
35.0942
35.0914
35.0885
35.0857
35.0829
35.08
35.0772
35.0744
35.0715
35.0687
35.0659
35.063
35.0602
35.0574
35.0546
35.0517
35.0489
35.0461
35.0432
35.0404
35.0376
35.0348
35.0319
35.0291
35.0263
35.0235
35.0206
35.0178
35.015
35.0122
35.0094
35.0065
35.0037
35.0009
34.9981
34.9953
34.9924
34.9896
34.9868
34.984
34.9812
34.9783
34.9755
34.9727
34.9699
34.9671
34.9643
34.9615
34.9586
34.9558
34.953
34.9502
34.9474
34.9446
34.9418
34.939
34.9361
34.9333
34.9305
34.9277
34.9249
34.9221
34.9193
34.9165
34.9137
34.9109
34.9081
34.9052
34.9024
34.8996
34.8968
34.894
34.8912
34.8884
34.8856
34.8828
34.88
34.8772
34.8744
34.8716
34.8688
34.866
34.8632
34.8604
34.8576
34.8548
34.852
34.8492
34.8464
34.8436
34.8408
34.838
34.8352
34.8324
34.8296
34.8268
34.8241
34.8213
34.8185
34.8157
34.8129
34.8101
34.8073
34.8045
34.8017
34.7989
34.7961
34.7933
34.7906
34.7878
34.785
34.7822
34.7794
34.7766
34.7738
34.771
34.7683
34.7655
34.7627
34.7599
34.7571
34.7543
34.7516
34.7488
34.746
34.7432
34.7404
34.7376
34.7349
34.7321
34.7293
34.7265
34.7237
34.721
34.7182
34.7154
34.7126
34.7099
34.7071
34.7043
34.7015
34.6988
34.696
34.6932
34.6904
34.6877
34.6849
34.6821
34.6793
34.6766
34.6738
34.671
34.6683
34.6655
34.6627
34.6599
34.6572
34.6544
34.6516
34.6489
34.6461
34.6433
34.6406
34.6378
34.635
34.6323
34.6295
34.6267
34.624
34.6212
34.6185
34.6157
34.6129
34.6102
34.6074
34.6046
34.6019
34.5991
34.5964
34.5936
34.5909
34.5881
34.5853
34.5826
34.5798
34.5771
34.5743
34.5716
34.5688
34.566
34.5633
34.5605
34.5578
34.555
34.5523
34.5495
34.5468
34.544
34.5413
34.5385
34.5358
34.533
34.5303
34.5275
34.5248
34.522
34.5193
34.5165
34.5138
34.511
34.5083
34.5055
34.5028
34.5
34.4973
34.4946
34.4918
34.4891
34.4863
34.4836
34.4808
34.4781
34.4754
34.4726
34.4699
34.4671
34.4644
34.4617
34.4589
34.4562
34.4534
34.4507
34.448
34.4452
34.4425
34.4398
34.437
34.4343
34.4316
34.4288
34.4261
34.4234
34.4206
34.4179
34.4152
34.4124
34.4097
34.407
34.4042
34.4015
34.3988
34.396
34.3933
34.3906
34.3879
34.3851
34.3824
34.3797
34.3769
34.3742
34.3715
34.3688
34.366
34.3633
34.3606
34.3579
34.3552
34.3524
34.3497
34.347
34.3443
34.3415
34.3388
34.3361
34.3334
34.3307
34.3279
34.3252
34.3225
34.3198
34.3171
34.3144
34.3116
34.3089
34.3062
34.3035
34.3008
34.2981
34.2953
34.2926
34.2899
34.2872
34.2845
34.2818
34.2791
34.2764
34.2737
34.2709
34.2682
34.2655
34.2628
34.2601
34.2574
34.2547
34.252
34.2493
34.2466
34.2439
34.2412
34.2385
34.2357
34.233
34.2303
34.2276
34.2249
34.2222
34.2195
34.2168
34.2141
34.2114
34.2087
34.206
34.2033
34.2006
34.1979
34.1952
34.1925
34.1898
34.1871
34.1844
34.1817
34.179
34.1763
34.1737
34.171
34.1683
34.1656
34.1629
34.1602
34.1575
34.1548
34.1521
34.1494
34.1467
34.144
34.1413
34.1386
34.136
34.1333
34.1306
34.1279
34.1252
34.1225
34.1198
34.1171
34.1145
34.1118
34.1091
34.1064
34.1037
34.101
34.0983
34.0957
34.093
34.0903
34.0876
34.0849
34.0823
34.0796
34.0769
34.0742
34.0715
34.0689
34.0662
34.0635
34.0608
34.0581
34.0555
34.0528
34.0501
34.0474
34.0448
34.0421
34.0394
34.0367
34.0341
34.0314
34.0287
34.026
34.0234
34.0207
34.018
34.0154
34.0127
34.01
34.0073
34.0047
34.002
33.9993
33.9967
33.994
33.9913
33.9887
33.986
33.9833
33.9807
33.978
33.9753
33.9727
33.97
33.9673
33.9647
33.962
33.9594
33.9567
33.954
33.9514
33.9487
33.9461
33.9434
33.9407
33.9381
33.9354
33.9328
33.9301
33.9274
33.9248
33.9221
33.9195
33.9168
33.9142
33.9115
33.9089
33.9062
33.9035
33.9009
33.8982
33.8956
33.8929
33.8903
33.8876
33.885
33.8823
33.8797
33.877
33.8744
33.8717
33.8691
33.8664
33.8638
33.8611
33.8585
33.8558
33.8532
33.8506
33.8479
33.8453
33.8426
33.84
33.8373
33.8347
33.832
33.8294
33.8268
33.8241
33.8215
33.8188
33.8162
33.8136
33.8109
33.8083
33.8056
33.803
33.8004
33.7977
33.7951
33.7925
33.7898
33.7872
33.7845
33.7819
33.7793
33.7766
33.774
33.7714
33.7687
33.7661
33.7635
33.7608
33.7582
33.7556
33.753
33.7503
33.7477
33.7451
33.7424
33.7398
33.7372
33.7346
33.7319
33.7293
33.7267
33.724
33.7214
33.7188
33.7162
33.7135
33.7109
33.7083
33.7057
33.7031
33.7004
33.6978
33.6952
33.6926
33.6899
33.6873
33.6847
33.6821
33.6795
33.6768
33.6742
33.6716
33.669
33.6664
33.6638
33.6611
33.6585
33.6559
33.6533
33.6507
33.6481
33.6455
33.6428
33.6402
33.6376
33.635
33.6324
33.6298
33.6272
33.6246
33.6219
33.6193
33.6167
33.6141
33.6115
33.6089
33.6063
33.6037
33.6011
33.5985
33.5959
33.5933
33.5907
33.5881
33.5854
33.5828
33.5802
33.5776
33.575
33.5724
33.5698
33.5672
33.5646
33.562
33.5594
33.5568
33.5542
33.5516
33.549
33.5464
33.5438
33.5412
33.5386
33.536
33.5334
33.5308
33.5283
33.5257
33.5231
33.5205
33.5179
33.5153
33.5127
33.5101
33.5075
33.5049
33.5023
33.4997
33.4971
33.4945
33.492
33.4894
33.4868
33.4842
33.4816
33.479
33.4764
33.4738
33.4713
33.4687
33.4661
33.4635
33.4609
33.4583
33.4557
33.4532
33.4506
33.448
33.4454
33.4428
33.4402
33.4377
33.4351
33.4325
33.4299
33.4273
33.4248
33.4222
33.4196
33.417
33.4144
33.4119
33.4093
33.4067
33.4041
33.4016
33.399
33.3964
33.3938
33.3913
33.3887
33.3861
33.3835
33.381
33.3784
33.3758
33.3733
33.3707
33.3681
33.3655
33.363
33.3604
33.3578
33.3553
33.3527
33.3501
33.3476
33.345
33.3424
33.3399
33.3373
33.3347
33.3322
33.3296
33.327
33.3245
33.3219
33.3194
33.3168
33.3142
33.3117
33.3091
33.3065
33.304
33.3014
33.2989
33.2963
33.2937
33.2912
33.2886
33.2861
33.2835
33.281
33.2784
33.2758
33.2733
33.2707
33.2682
33.2656
33.2631
33.2605
33.258
33.2554
33.2529
33.2503
33.2478
33.2452
33.2427
33.2401
33.2376
33.235
33.2325
33.2299
33.2274
33.2248
33.2223
33.2197
33.2172
33.2146
33.2121
33.2095
33.207
33.2044
33.2019
33.1994
33.1968
33.1943
33.1917
33.1892
33.1866
33.1841
33.1816
33.179
33.1765
33.1739
33.1714
33.1689
33.1663
33.1638
33.1612
33.1587
33.1562
33.1536
33.1511
33.1486
33.146
33.1435
33.141
33.1384
33.1359
33.1334
33.1308
33.1283
33.1258
33.1232
33.1207
33.1182
33.1156
33.1131
33.1106
33.108
33.1055
33.103
33.1005
33.0979
33.0954
33.0929
33.0903
33.0878
33.0853
33.0828
33.0802
33.0777
33.0752
33.0727
33.0701
33.0676
33.0651
33.0626
33.0601
33.0575
33.055
33.0525
33.05
33.0475
33.0449
33.0424
33.0399
33.0374
33.0349
33.0323
33.0298
33.0273
33.0248
33.0223
33.0198
33.0172
33.0147
33.0122
33.0097
33.0072
33.0047
33.0022
32.9996
32.9971
32.9946
32.9921
32.9896
32.9871
32.9846
32.9821
32.9796
32.9771
32.9745
32.972
32.9695
32.967
32.9645
32.962
32.9595
32.957
32.9545
32.952
32.9495
32.947
32.9445
32.942
32.9395
32.937
32.9345
32.932
32.9295
32.927
32.9245
32.922
32.9195
32.917
32.9145
32.912
32.9095
32.907
32.9045
32.902
32.8995
32.897
32.8945
32.892
32.8895
32.887
32.8845
32.882
32.8795
32.877
32.8745
32.872
32.8696
32.8671
32.8646
32.8621
32.8596
32.8571
32.8546
32.8521
32.8496
32.8471
32.8447
32.8422
32.8397
32.8372
32.8347
32.8322
32.8297
32.8273
32.8248
32.8223
32.8198
32.8173
32.8148
32.8124
32.8099
32.8074
32.8049
32.8024
32.7999
32.7975
32.795
32.7925
32.79
32.7876
32.7851
32.7826
32.7801
32.7776
32.7752
32.7727
32.7702
32.7677
32.7653
32.7628
32.7603
32.7578
32.7554
32.7529
32.7504
32.7479
32.7455
32.743
32.7405
32.7381
32.7356
32.7331
32.7307
32.7282
32.7257
32.7232
32.7208
32.7183
32.7158
32.7134
32.7109
32.7084
32.706
32.7035
32.701
32.6986
32.6961
32.6937
32.6912
32.6887
32.6863
32.6838
32.6813
32.6789
32.6764
32.674
32.6715
32.669
32.6666
32.6641
32.6617
32.6592
32.6567
32.6543
32.6518
32.6494
32.6469
32.6445
32.642
32.6396
32.6371
32.6346
32.6322
32.6297
32.6273
32.6248
32.6224
32.6199
32.6175
32.615
32.6126
32.6101
32.6077
32.6052
32.6028
32.6003
32.5979
32.5954
32.593
32.5905
32.5881
32.5856
32.5832
32.5808
32.5783
32.5759
32.5734
32.571
32.5685
32.5661
32.5637
32.5612
32.5588
32.5563
32.5539
32.5514
32.549
32.5466
32.5441
32.5417
32.5392
32.5368
32.5344
32.5319
32.5295
32.5271
32.5246
32.5222
32.5197
32.5173
32.5149
32.5124
32.51
32.5076
32.5051
32.5027
32.5003
32.4978
32.4954
32.493
32.4906
32.4881
32.4857
32.4833
32.4808
32.4784
32.476
32.4735
32.4711
32.4687
32.4663
32.4638
32.4614
32.459
32.4566
32.4541
32.4517
32.4493
32.4469
32.4444
32.442
32.4396
32.4372
32.4347
32.4323
32.4299
32.4275
32.4251
32.4226
32.4202
32.4178
32.4154
32.413
32.4106
32.4081
32.4057
32.4033
32.4009
32.3985
32.3961
32.3936
32.3912
32.3888
32.3864
32.384
32.3816
32.3792
32.3767
32.3743
32.3719
32.3695
32.3671
32.3647
32.3623
32.3599
32.3575
32.355
32.3526
32.3502
32.3478
32.3454
32.343
32.3406
32.3382
32.3358
32.3334
32.331
32.3286
32.3262
32.3238
32.3214
32.319
32.3166
32.3142
32.3118
32.3093
32.3069
32.3045
32.3021
32.2997
32.2973
32.2949
32.2925
32.2902
32.2878
32.2854
32.283
32.2806
32.2782
32.2758
32.2734
32.271
32.2686
32.2662
32.2638
32.2614
32.259
32.2566
32.2542
32.2518
32.2494
32.247
32.2447
32.2423
32.2399
32.2375
32.2351
32.2327
32.2303
32.2279
32.2255
32.2232
32.2208
32.2184
32.216
32.2136
32.2112
32.2088
32.2064
32.2041
32.2017
32.1993
32.1969
32.1945
32.1921
32.1898
32.1874
32.185
32.1826
32.1802
32.1779
32.1755
32.1731
32.1707
32.1683
32.166
32.1636
32.1612
32.1588
32.1565
32.1541
32.1517
32.1493
32.147
32.1446
32.1422
32.1398
32.1375
32.1351
32.1327
32.1303
32.128
32.1256
32.1232
32.1209
32.1185
32.1161
32.1137
32.1114
32.109
32.1066
32.1043
32.1019
32.0995
32.0972
32.0948
32.0924
32.0901
32.0877
32.0853
32.083
32.0806
32.0782
32.0759
32.0735
32.0712
32.0688
32.0664
32.0641
32.0617
32.0593
32.057
32.0546
32.0523
32.0499
32.0475
32.0452
32.0428
32.0405
32.0381
32.0358
32.0334
32.031
32.0287
32.0263
32.024
32.0216
32.0193
32.0169
32.0146
32.0122
32.0099
32.0075
32.0052
32.0028
32.0005
31.9981
31.9957
31.9934
31.991
31.9887
31.9864
31.984
31.9817
31.9793
31.977
31.9746
31.9723
31.9699
31.9676
31.9652
31.9629
31.9605
31.9582
31.9559
31.9535
31.9512
31.9488
31.9465
31.9441
31.9418
31.9395
31.9371
31.9348
31.9324
31.9301
31.9278
31.9254
31.9231
31.9207
31.9184
31.9161
31.9137
31.9114
31.9091
31.9067
31.9044
31.902
31.8997
31.8974
31.895
31.8927
31.8904
31.888
31.8857
31.8834
31.8811
31.8787
31.8764
31.8741
31.8717
31.8694
31.8671
31.8647
31.8624
31.8601
31.8578
31.8554
31.8531
31.8508
31.8485
31.8461
31.8438
31.8415
31.8391
31.8368
31.8345
31.8322
31.8299
31.8275
31.8252
31.8229
31.8206
31.8182
31.8159
31.8136
31.8113
31.809
31.8066
31.8043
31.802
31.7997
31.7974
31.7951
31.7927
31.7904
31.7881
31.7858
31.7835
31.7812
31.7788
31.7765
31.7742
31.7719
31.7696
31.7673
31.765
31.7627
31.7603
31.758
31.7557
31.7534
31.7511
31.7488
31.7465
31.7442
31.7419
31.7396
31.7372
31.7349
31.7326
31.7303
31.728
31.7257
31.7234
31.7211
31.7188
31.7165
31.7142
31.7119
31.7096
31.7073
31.705
31.7027
31.7004
31.6981
31.6958
31.6935
31.6912
31.6889
31.6866
31.6843
31.682
31.6797
31.6774
31.6751
31.6728
31.6705
31.6682
31.6659
31.6636
31.6613
31.659
31.6567
31.6544
31.6521
31.6498
31.6475
31.6452
31.643
31.6407
31.6384
31.6361
31.6338
31.6315
31.6292
31.6269
31.6246
31.6223
31.6201
31.6178
31.6155
31.6132
31.6109
31.6086
31.6063
31.604
31.6018
31.5995
31.5972
31.5949
31.5926
31.5903
31.5881
31.5858
31.5835
31.5812
31.5789
31.5767
31.5744
31.5721
31.5698
31.5675
31.5653
31.563
31.5607
31.5584
31.5561
31.5539
31.5516
31.5493
31.547
31.5448
31.5425
31.5402
31.5379
31.5357
31.5334
31.5311
31.5288
31.5266
31.5243
31.522
31.5197
31.5175
31.5152
31.5129
31.5107
31.5084
31.5061
31.5039
31.5016
31.4993
31.4971
31.4948
31.4925
31.4903
31.488
31.4857
31.4835
31.4812
31.4789
31.4767
31.4744
31.4721
31.4699
31.4676
31.4653
31.4631
31.4608
31.4586
31.4563
31.454
31.4518
31.4495
31.4473
31.445
31.4427
31.4405
31.4382
31.436
31.4337
31.4315
31.4292
31.4269
31.4247
31.4224
31.4202
31.4179
31.4157
31.4134
31.4112
31.4089
31.4067
31.4044
31.4021
31.3999
31.3976
31.3954
31.3931
31.3909
31.3886
31.3864
31.3841
31.3819
31.3796
31.3774
31.3752
31.3729
31.3707
31.3684
31.3662
31.3639
31.3617
31.3594
31.3572
31.3549
31.3527
31.3505
31.3482
31.346
31.3437
31.3415
31.3392
31.337
31.3348
31.3325
31.3303
31.328
31.3258
31.3236
31.3213
31.3191
31.3169
31.3146
31.3124
31.3101
31.3079
31.3057
31.3034
31.3012
31.299
31.2967
31.2945
31.2923
31.29
31.2878
31.2856
31.2833
31.2811
31.2789
31.2766
31.2744
31.2722
31.27
31.2677
31.2655
31.2633
31.261
31.2588
31.2566
31.2544
31.2521
31.2499
31.2477
31.2455
31.2432
31.241
31.2388
31.2366
31.2343
31.2321
31.2299
31.2277
31.2254
31.2232
31.221
31.2188
31.2166
31.2143
31.2121
31.2099
31.2077
31.2055
31.2032
31.201
31.1988
31.1966
31.1944
31.1922
31.1899
31.1877
31.1855
31.1833
31.1811
31.1789
31.1766
31.1744
31.1722
31.17
31.1678
31.1656
31.1634
31.1612
31.159
31.1567
31.1545
31.1523
31.1501
31.1479
31.1457
31.1435
31.1413
31.1391
31.1369
31.1347
31.1324
31.1302
31.128
31.1258
31.1236
31.1214
31.1192
31.117
31.1148
31.1126
31.1104
31.1082
31.106
31.1038
31.1016
31.0994
31.0972
31.095
31.0928
31.0906
31.0884
31.0862
31.084
31.0818
31.0796
31.0774
31.0752
31.073
31.0708
31.0686
31.0664
31.0642
31.062
31.0598
31.0577
31.0555
31.0533
31.0511
31.0489
31.0467
31.0445
31.0423
31.0401
31.0379
31.0357
31.0335
31.0314
31.0292
31.027
31.0248
31.0226
31.0204
31.0182
31.016
31.0139
31.0117
31.0095
31.0073
31.0051
31.0029
31.0008
30.9986
30.9964
30.9942
30.992
30.9898
30.9877
30.9855
30.9833
30.9811
30.9789
30.9768
30.9746
30.9724
30.9702
30.968
30.9659
30.9637
30.9615
30.9593
30.9571
30.955
30.9528
30.9506
30.9484
30.9463
30.9441
30.9419
30.9397
30.9376
30.9354
30.9332
30.9311
30.9289
30.9267
30.9245
30.9224
30.9202
30.918
30.9159
30.9137
30.9115
30.9094
30.9072
30.905
30.9029
30.9007
30.8985
30.8964
30.8942
30.892
30.8899
30.8877
30.8855
30.8834
30.8812
30.879
30.8769
30.8747
30.8726
30.8704
30.8682
30.8661
30.8639
30.8617
30.8596
30.8574
30.8553
30.8531
30.851
30.8488
30.8466
30.8445
30.8423
30.8402
30.838
30.8359
30.8337
30.8315
30.8294
30.8272
30.8251
30.8229
30.8208
30.8186
30.8165
30.8143
30.8122
30.81
30.8079
30.8057
30.8036
30.8014
30.7993
30.7971
30.795
30.7928
30.7907
30.7885
30.7864
30.7842
30.7821
30.7799
30.7778
30.7756
30.7735
30.7714
30.7692
30.7671
30.7649
30.7628
30.7606
30.7585
30.7564
30.7542
30.7521
30.7499
30.7478
30.7456
30.7435
30.7414
30.7392
30.7371
30.7349
30.7328
30.7307
30.7285
30.7264
30.7243
30.7221
30.72
30.7179
30.7157
30.7136
30.7115
30.7093
30.7072
30.7051
30.7029
30.7008
30.6987
30.6965
30.6944
30.6923
30.6901
30.688
30.6859
30.6837
30.6816
30.6795
30.6774
30.6752
30.6731
30.671
30.6688
30.6667
30.6646
30.6625
30.6603
30.6582
30.6561
30.654
30.6518
30.6497
30.6476
30.6455
30.6433
30.6412
30.6391
30.637
30.6349
30.6327
30.6306
30.6285
30.6264
30.6243
30.6221
30.62
30.6179
30.6158
30.6137
30.6116
30.6094
30.6073
30.6052
30.6031
30.601
30.5989
30.5967
30.5946
30.5925
30.5904
30.5883
30.5862
30.5841
30.582
30.5798
30.5777
30.5756
30.5735
30.5714
30.5693
30.5672
30.5651
30.563
30.5609
30.5587
30.5566
30.5545
30.5524
30.5503
30.5482
30.5461
30.544
30.5419
30.5398
30.5377
30.5356
30.5335
30.5314
30.5293
30.5272
30.5251
30.523
30.5209
30.5188
30.5167
30.5146
30.5125
30.5104
30.5083
30.5062
30.5041
30.502
30.4999
30.4978
30.4957
30.4936
30.4915
30.4894
30.4873
30.4852
30.4831
30.481
30.4789
30.4768
30.4747
30.4726
30.4705
30.4684
30.4664
30.4643
30.4622
30.4601
30.458
30.4559
30.4538
30.4517
30.4496
30.4475
30.4455
30.4434
30.4413
30.4392
30.4371
30.435
30.4329
30.4309
30.4288
30.4267
30.4246
30.4225
30.4204
30.4183
30.4163
30.4142
30.4121
30.41
30.4079
30.4059
30.4038
30.4017
30.3996
30.3975
30.3955
30.3934
30.3913
30.3892
30.3871
30.3851
30.383
30.3809
30.3788
30.3768
30.3747
30.3726
30.3705
30.3685
30.3664
30.3643
30.3622
30.3602
30.3581
30.356
30.3539
30.3519
30.3498
30.3477
30.3457
30.3436
30.3415
30.3394
30.3374
30.3353
30.3332
30.3312
30.3291
30.327
30.325
30.3229
30.3208
30.3188
30.3167
30.3146
30.3126
30.3105
30.3084
30.3064
30.3043
30.3023
30.3002
30.2981
30.2961
30.294
30.2919
30.2899
30.2878
30.2858
30.2837
30.2816
30.2796
30.2775
30.2755
30.2734
30.2713
30.2693
30.2672
30.2652
30.2631
30.2611
30.259
30.257
30.2549
30.2528
30.2508
30.2487
30.2467
30.2446
30.2426
30.2405
30.2385
30.2364
30.2344
30.2323
30.2303
30.2282
30.2262
30.2241
30.2221
30.22
30.218
30.2159
30.2139
30.2118
30.2098
30.2077
30.2057
30.2036
30.2016
30.1996
30.1975
30.1955
30.1934
30.1914
30.1893
30.1873
30.1853
30.1832
30.1812
30.1791
30.1771
30.175
30.173
30.171
30.1689