# vtk DataFile Version 2.0
vtk output
ASCII
DATASET STRUCTURED_GRID
DIMENSIONS 50 10 30
POINTS 15000 float
0 0 0
1 0 0
2 0 0
3 0 0
4 0 0
5 0 0
6 0 0
7 0 0
8 0 0
9 0 0
10 0 0
11 0 0
12 0 0
13 0 0
14 0 0
15 0 0
16 0 0
17 0 0
18 0 0
19 0 0
20 0 0
21 0 0
22 0 0
23 0 0
24 0 0
25 0 0
26 0 0
27 0 0
28 0 0
29 0 0
30 0 0
31 0 0
32 0 0
33 0 0
34 0 0
35 0 0
36 0 0
37 0 0
38 0 0
39 0 0
40 0 0
41 0 0
42 0 0
43 0 0
44 0 0
45 0 0
46 0 0
47 0 0
48 0 0
49 0 0
0 1 0
1 1 0
2 1 0
3 1 0
4 1 0
5 1 0
6 1 0
7 1 0
8 1 0
9 1 0
10 1 0
11 1 0
12 1 0
13 1 0
14 1 0
15 1 0
16 1 0
17 1 0
18 1 0
19 1 0
20 1 0
21 1 0
22 1 0
23 1 0
24 1 0
25 1 0
26 1 0
27 1 0
28 1 0
29 1 0
30 1 0
31 1 0
32 1 0
33 1 0
34 1 0
35 1 0
36 1 0
37 1 0
38 1 0
39 1 0
40 1 0
41 1 0
42 1 0
43 1 0
44 1 0
45 1 0
46 1 0
47 1 0
48 1 0
49 1 0
0 2 0
1 2 0
2 2 0
3 2 0
4 2 0
5 2 0
6 2 0
7 2 0
8 2 0
9 2 0
10 2 0
11 2 0
12 2 0
13 2 0
14 2 0
15 2 0
16 2 0
17 2 0
18 2 0
19 2 0
20 2 0
21 2 0
22 2 0
23 2 0
24 2 0
25 2 0
26 2 0
27 2 0
28 2 0
29 2 0
30 2 0
31 2 0
32 2 0
33 2 0
34 2 0
35 2 0
36 2 0
37 2 0
38 2 0
39 2 0
40 2 0
41 2 0
42 2 0
43 2 0
44 2 0
45 2 0
46 2 0
47 2 0
48 2 0
49 2 0
0 3 0
1 3 0
2 3 0
3 3 0
4 3 0
5 3 0
6 3 0
7 3 0
8 3 0
9 3 0
10 3 0
11 3 0
12 3 0
13 3 0
14 3 0
15 3 0
16 3 0
17 3 0
18 3 0
19 3 0
20 3 0
21 3 0
22 3 0
23 3 0
24 3 0
25 3 0
26 3 0
27 3 0
28 3 0
29 3 0
30 3 0
31 3 0
32 3 0
33 3 0
34 3 0
35 3 0
36 3 0
37 3 0
38 3 0
39 3 0
40 3 0
41 3 0
42 3 0
43 3 0
44 3 0
45 3 0
46 3 0
47 3 0
48 3 0
49 3 0
0 4 0
1 4 0
2 4 0
3 4 0
4 4 0
5 4 0
6 4 0
7 4 0
8 4 0
9 4 0
10 4 0
11 4 0
12 4 0
13 4 0
14 4 0
15 4 0
16 4 0
17 4 0
18 4 0
19 4 0
20 4 0
21 4 0
22 4 0
23 4 0
24 4 0
25 4 0
26 4 0
27 4 0
28 4 0
29 4 0
30 4 0
31 4 0
32 4 0
33 4 0
34 4 0
35 4 0
36 4 0
37 4 0
38 4 0
39 4 0
40 4 0
41 4 0
42 4 0
43 4 0
44 4 0
45 4 0
46 4 0
47 4 0
48 4 0
49 4 0
0 5 0
1 5 0
2 5 0
3 5 0
4 5 0
5 5 0
6 5 0
7 5 0
8 5 0
9 5 0
10 5 0
11 5 0
12 5 0
13 5 0
14 5 0
15 5 0
16 5 0
17 5 0
18 5 0
19 5 0
20 5 0
21 5 0
22 5 0
23 5 0
24 5 0
25 5 0
26 5 0
27 5 0
28 5 0
29 5 0
30 5 0
31 5 0
32 5 0
33 5 0
34 5 0
35 5 0
36 5 0
37 5 0
38 5 0
39 5 0
40 5 0
41 5 0
42 5 0
43 5 0
44 5 0
45 5 0
46 5 0
47 5 0
48 5 0
49 5 0
0 6 0
1 6 0
2 6 0
3 6 0
4 6 0
5 6 0
6 6 0
7 6 0
8 6 0
9 6 0
10 6 0
11 6 0
12 6 0
13 6 0
14 6 0
15 6 0
16 6 0
17 6 0
18 6 0
19 6 0
20 6 0
21 6 0
22 6 0
23 6 0
24 6 0
25 6 0
26 6 0
27 6 0
28 6 0
29 6 0
30 6 0
31 6 0
32 6 0
33 6 0
34 6 0
35 6 0
36 6 0
37 6 0
38 6 0
39 6 0
40 6 0
41 6 0
42 6 0
43 6 0
44 6 0
45 6 0
46 6 0
47 6 0
48 6 0
49 6 0
0 7 0
1 7 0
2 7 0
3 7 0
4 7 0
5 7 0
6 7 0
7 7 0
8 7 0
9 7 0
10 7 0
11 7 0
12 7 0
13 7 0
14 7 0
15 7 0
16 7 0
17 7 0
18 7 0
19 7 0
20 7 0
21 7 0
22 7 0
23 7 0
24 7 0
25 7 0
26 7 0
27 7 0
28 7 0
29 7 0
30 7 0
31 7 0
32 7 0
33 7 0
34 7 0
35 7 0
36 7 0
37 7 0
38 7 0
39 7 0
40 7 0
41 7 0
42 7 0
43 7 0
44 7 0
45 7 0
46 7 0
47 7 0
48 7 0
49 7 0
0 8 0
1 8 0
2 8 0
3 8 0
4 8 0
5 8 0
6 8 0
7 8 0
8 8 0
9 8 0
10 8 0
11 8 0
12 8 0
13 8 0
14 8 0
15 8 0
16 8 0
17 8 0
18 8 0
19 8 0
20 8 0
21 8 0
22 8 0
23 8 0
24 8 0
25 8 0
26 8 0
27 8 0
28 8 0
29 8 0
30 8 0
31 8 0
32 8 0
33 8 0
34 8 0
35 8 0
36 8 0
37 8 0
38 8 0
39 8 0
40 8 0
41 8 0
42 8 0
43 8 0
44 8 0
45 8 0
46 8 0
47 8 0
48 8 0
49 8 0
0 9 0
1 9 0
2 9 0
3 9 0
4 9 0
5 9 0
6 9 0
7 9 0
8 9 0
9 9 0
10 9 0
11 9 0
12 9 0
13 9 0
14 9 0
15 9 0
16 9 0
17 9 0
18 9 0
19 9 0
20 9 0
21 9 0
22 9 0
23 9 0
24 9 0
25 9 0
26 9 0
27 9 0
28 9 0
29 9 0
30 9 0
31 9 0
32 9 0
33 9 0
34 9 0
35 9 0
36 9 0
37 9 0
38 9 0
39 9 0
40 9 0
41 9 0
42 9 0
43 9 0
44 9 0
45 9 0
46 9 0
47 9 0
48 9 0
49 9 0
0 0 1
1 0 1
2 0 1
3 0 1
4 0 1
5 0 1
6 0 1
7 0 1
8 0 1
9 0 1
10 0 1
11 0 1
12 0 1
13 0 1
14 0 1
15 0 1
16 0 1
17 0 1
18 0 1
19 0 1
20 0 1
21 0 1
22 0 1
23 0 1
24 0 1
25 0 1
26 0 1
27 0 1
28 0 1
29 0 1
30 0 1
31 0 1
32 0 1
33 0 1
34 0 1
35 0 1
36 0 1
37 0 1
38 0 1
39 0 1
40 0 1
41 0 1
42 0 1
43 0 1
44 0 1
45 0 1
46 0 1
47 0 1
48 0 1
49 0 1
0 1 1
1 1 1
2 1 1
3 1 1
4 1 1
5 1 1
6 1 1
7 1 1
8 1 1
9 1 1
10 1 1
11 1 1
12 1 1
13 1 1
14 1 1
15 1 1
16 1 1
17 1 1
18 1 1
19 1 1
20 1 1
21 1 1
22 1 1
23 1 1
24 1 1
25 1 1
26 1 1
27 1 1
28 1 1
29 1 1
30 1 1
31 1 1
32 1 1
33 1 1
34 1 1
35 1 1
36 1 1
37 1 1
38 1 1
39 1 1
40 1 1
41 1 1
42 1 1
43 1 1
44 1 1
45 1 1
46 1 1
47 1 1
48 1 1
49 1 1
0 2 1
1 2 1
2 2 1
3 2 1
4 2 1
5 2 1
6 2 1
7 2 1
8 2 1
9 2 1
10 2 1
11 2 1
12 2 1
13 2 1
14 2 1
15 2 1
16 2 1
17 2 1
18 2 1
19 2 1
20 2 1
21 2 1
22 2 1
23 2 1
24 2 1
25 2 1
26 2 1
27 2 1
28 2 1
29 2 1
30 2 1
31 2 1
32 2 1
33 2 1
34 2 1
35 2 1
36 2 1
37 2 1
38 2 1
39 2 1
40 2 1
41 2 1
42 2 1
43 2 1
44 2 1
45 2 1
46 2 1
47 2 1
48 2 1
49 2 1
0 3 1
1 3 1
2 3 1
3 3 1
4 3 1
5 3 1
6 3 1
7 3 1
8 3 1
9 3 1
10 3 1
11 3 1
12 3 1
13 3 1
14 3 1
15 3 1
16 3 1
17 3 1
18 3 1
19 3 1
20 3 1
21 3 1
22 3 1
23 3 1
24 3 1
25 3 1
26 3 1
27 3 1
28 3 1
29 3 1
30 3 1
31 3 1
32 3 1
33 3 1
34 3 1
35 3 1
36 3 1
37 3 1
38 3 1
39 3 1
40 3 1
41 3 1
42 3 1
43 3 1
44 3 1
45 3 1
46 3 1
47 3 1
48 3 1
49 3 1
0 4 1
1 4 1
2 4 1
3 4 1
4 4 1
5 4 1
6 4 1
7 4 1
8 4 1
9 4 1
10 4 1
11 4 1
12 4 1
13 4 1
14 4 1
15 4 1
16 4 1
17 4 1
18 4 1
19 4 1
20 4 1
21 4 1
22 4 1
23 4 1
24 4 1
25 4 1
26 4 1
27 4 1
28 4 1
29 4 1
30 4 1
31 4 1
32 4 1
33 4 1
34 4 1
35 4 1
36 4 1
37 4 1
38 4 1
39 4 1
40 4 1
41 4 1
42 4 1
43 4 1
44 4 1
45 4 1
46 4 1
47 4 1
48 4 1
49 4 1
0 5 1
1 5 1
2 5 1
3 5 1
4 5 1
5 5 1
6 5 1
7 5 1
8 5 1
9 5 1
10 5 1
11 5 1
12 5 1
13 5 1
14 5 1
15 5 1
16 5 1
17 5 1
18 5 1
19 5 1
20 5 1
21 5 1
22 5 1
23 5 1
24 5 1
25 5 1
26 5 1
27 5 1
28 5 1
29 5 1
30 5 1
31 5 1
32 5 1
33 5 1
34 5 1
35 5 1
36 5 1
37 5 1
38 5 1
39 5 1
40 5 1
41 5 1
42 5 1
43 5 1
44 5 1
45 5 1
46 5 1
47 5 1
48 5 1
49 5 1
0 6 1
1 6 1
2 6 1
3 6 1
4 6 1
5 6 1
6 6 1
7 6 1
8 6 1
9 6 1
10 6 1
11 6 1
12 6 1
13 6 1
14 6 1
15 6 1
16 6 1
17 6 1
18 6 1
19 6 1
20 6 1
21 6 1
22 6 1
23 6 1
24 6 1
25 6 1
26 6 1
27 6 1
28 6 1
29 6 1
30 6 1
31 6 1
32 6 1
33 6 1
34 6 1
35 6 1
36 6 1
37 6 1
38 6 1
39 6 1
40 6 1
41 6 1
42 6 1
43 6 1
44 6 1
45 6 1
46 6 1
47 6 1
48 6 1
49 6 1
0 7 1
1 7 1
2 7 1
3 7 1
4 7 1
5 7 1
6 7 1
7 7 1
8 7 1
9 7 1
10 7 1
11 7 1
12 7 1
13 7 1
14 7 1
15 7 1
16 7 1
17 7 1
18 7 1
19 7 1
20 7 1
21 7 1
22 7 1
23 7 1
24 7 1
25 7 1
26 7 1
27 7 1
28 7 1
29 7 1
30 7 1
31 7 1
32 7 1
33 7 1
34 7 1
35 7 1
36 7 1
37 7 1
38 7 1
39 7 1
40 7 1
41 7 1
42 7 1
43 7 1
44 7 1
45 7 1
46 7 1
47 7 1
48 7 1
49 7 1
0 8 1
1 8 1
2 8 1
3 8 1
4 8 1
5 8 1
6 8 1
7 8 1
8 8 1
9 8 1
10 8 1
11 8 1
12 8 1
13 8 1
14 8 1
15 8 1
16 8 1
17 8 1
18 8 1
19 8 1
20 8 1
21 8 1
22 8 1
23 8 1
24 8 1
25 8 1
26 8 1
27 8 1
28 8 1
29 8 1
30 8 1
31 8 1
32 8 1
33 8 1
34 8 1
35 8 1
36 8 1
37 8 1
38 8 1
39 8 1
40 8 1
41 8 1
42 8 1
43 8 1
44 8 1
45 8 1
46 8 1
47 8 1
48 8 1
49 8 1
0 9 1
1 9 1
2 9 1
3 9 1
4 9 1
5 9 1
6 9 1
7 9 1
8 9 1
9 9 1
10 9 1
11 9 1
12 9 1
13 9 1
14 9 1
15 9 1
16 9 1
17 9 1
18 9 1
19 9 1
20 9 1
21 9 1
22 9 1
23 9 1
24 9 1
25 9 1
26 9 1
27 9 1
28 9 1
29 9 1
30 9 1
31 9 1
32 9 1
33 9 1
34 9 1
35 9 1
36 9 1
37 9 1
38 9 1
39 9 1
40 9 1
41 9 1
42 9 1
43 9 1
44 9 1
45 9 1
46 9 1
47 9 1
48 9 1
49 9 1
0 0 2
1 0 2
2 0 2
3 0 2
4 0 2
5 0 2
6 0 2
7 0 2
8 0 2
9 0 2
10 0 2
11 0 2
12 0 2
13 0 2
14 0 2
15 0 2
16 0 2
17 0 2
18 0 2
19 0 2
20 0 2
21 0 2
22 0 2
23 0 2
24 0 2
25 0 2
26 0 2
27 0 2
28 0 2
29 0 2
30 0 2
31 0 2
32 0 2
33 0 2
34 0 2
35 0 2
36 0 2
37 0 2
38 0 2
39 0 2
40 0 2
41 0 2
42 0 2
43 0 2
44 0 2
45 0 2
46 0 2
47 0 2
48 0 2
49 0 2
0 1 2
1 1 2
2 1 2
3 1 2
4 1 2
5 1 2
6 1 2
7 1 2
8 1 2
9 1 2
10 1 2
11 1 2
12 1 2
13 1 2
14 1 2
15 1 2
16 1 2
17 1 2
18 1 2
19 1 2
20 1 2
21 1 2
22 1 2
23 1 2
24 1 2
25 1 2
26 1 2
27 1 2
28 1 2
29 1 2
30 1 2
31 1 2
32 1 2
33 1 2
34 1 2
35 1 2
36 1 2
37 1 2
38 1 2
39 1 2
40 1 2
41 1 2
42 1 2
43 1 2
44 1 2
45 1 2
46 1 2
47 1 2
48 1 2
49 1 2
0 2 2
1 2 2
2 2 2
3 2 2
4 2 2
5 2 2
6 2 2
7 2 2
8 2 2
9 2 2
10 2 2
11 2 2
12 2 2
13 2 2
14 2 2
15 2 2
16 2 2
17 2 2
18 2 2
19 2 2
20 2 2
21 2 2
22 2 2
23 2 2
24 2 2
25 2 2
26 2 2
27 2 2
28 2 2
29 2 2
30 2 2
31 2 2
32 2 2
33 2 2
34 2 2
35 2 2
36 2 2
37 2 2
38 2 2
39 2 2
40 2 2
41 2 2
42 2 2
43 2 2
44 2 2
45 2 2
46 2 2
47 2 2
48 2 2
49 2 2
0 3 2
1 3 2
2 3 2
3 3 2
4 3 2
5 3 2
6 3 2
7 3 2
8 3 2
9 3 2
10 3 2
11 3 2
12 3 2
13 3 2
14 3 2
15 3 2
16 3 2
17 3 2
18 3 2
19 3 2
20 3 2
21 3 2
22 3 2
23 3 2
24 3 2
25 3 2
26 3 2
27 3 2
28 3 2
29 3 2
30 3 2
31 3 2
32 3 2
33 3 2
34 3 2
35 3 2
36 3 2
37 3 2
38 3 2
39 3 2
40 3 2
41 3 2
42 3 2
43 3 2
44 3 2
45 3 2
46 3 2
47 3 2
48 3 2
49 3 2
0 4 2
1 4 2
2 4 2
3 4 2
4 4 2
5 4 2
6 4 2
7 4 2
8 4 2
9 4 2
10 4 2
11 4 2
12 4 2
13 4 2
14 4 2
15 4 2
16 4 2
17 4 2
18 4 2
19 4 2
20 4 2
21 4 2
22 4 2
23 4 2
24 4 2
25 4 2
26 4 2
27 4 2
28 4 2
29 4 2
30 4 2
31 4 2
32 4 2
33 4 2
34 4 2
35 4 2
36 4 2
37 4 2
38 4 2
39 4 2
40 4 2
41 4 2
42 4 2
43 4 2
44 4 2
45 4 2
46 4 2
47 4 2
48 4 2
49 4 2
0 5 2
1 5 2
2 5 2
3 5 2
4 5 2
5 5 2
6 5 2
7 5 2
8 5 2
9 5 2
10 5 2
11 5 2
12 5 2
13 5 2
14 5 2
15 5 2
16 5 2
17 5 2
18 5 2
19 5 2
20 5 2
21 5 2
22 5 2
23 5 2
24 5 2
25 5 2
26 5 2
27 5 2
28 5 2
29 5 2
30 5 2
31 5 2
32 5 2
33 5 2
34 5 2
35 5 2
36 5 2
37 5 2
38 5 2
39 5 2
40 5 2
41 5 2
42 5 2
43 5 2
44 5 2
45 5 2
46 5 2
47 5 2
48 5 2
49 5 2
0 6 2
1 6 2
2 6 2
3 6 2
4 6 2
5 6 2
6 6 2
7 6 2
8 6 2
9 6 2
10 6 2
11 6 2
12 6 2
13 6 2
14 6 2
15 6 2
16 6 2
17 6 2
18 6 2
19 6 2
20 6 2
21 6 2
22 6 2
23 6 2
24 6 2
25 6 2
26 6 2
27 6 2
28 6 2
29 6 2
30 6 2
31 6 2
32 6 2
33 6 2
34 6 2
35 6 2
36 6 2
37 6 2
38 6 2
39 6 2
40 6 2
41 6 2
42 6 2
43 6 2
44 6 2
45 6 2
46 6 2
47 6 2
48 6 2
49 6 2
0 7 2
1 7 2
2 7 2
3 7 2
4 7 2
5 7 2
6 7 2
7 7 2
8 7 2
9 7 2
10 7 2
11 7 2
12 7 2
13 7 2
14 7 2
15 7 2
16 7 2
17 7 2
18 7 2
19 7 2
20 7 2
21 7 2
22 7 2
23 7 2
24 7 2
25 7 2
26 7 2
27 7 2
28 7 2
29 7 2
30 7 2
31 7 2
32 7 2
33 7 2
34 7 2
35 7 2
36 7 2
37 7 2
38 7 2
39 7 2
40 7 2
41 7 2
42 7 2
43 7 2
44 7 2
45 7 2
46 7 2
47 7 2
48 7 2
49 7 2
0 8 2
1 8 2
2 8 2
3 8 2
4 8 2
5 8 2
6 8 2
7 8 2
8 8 2
9 8 2
10 8 2
11 8 2
12 8 2
13 8 2
14 8 2
15 8 2
16 8 2
17 8 2
18 8 2
19 8 2
20 8 2
21 8 2
22 8 2
23 8 2
24 8 2
25 8 2
26 8 2
27 8 2
28 8 2
29 8 2
30 8 2
31 8 2
32 8 2
33 8 2
34 8 2
35 8 2
36 8 2
37 8 2
38 8 2
39 8 2
40 8 2
41 8 2
42 8 2
43 8 2
44 8 2
45 8 2
46 8 2
47 8 2
48 8 2
49 8 2
0 9 2
1 9 2
2 9 2
3 9 2
4 9 2
[...]
POINT_DATA 15000
SCALARS sol300 float
LOOKUP_TABLE default
58.4021
58.399
58.396
58.3929
58.3899
58.3868
58.3838
58.3808
58.3777
58.3747
58.3716
58.3686
58.3655
58.3625
58.3594
58.3564
58.3534
58.3503
58.3473
58.3442
58.3412
58.3381
58.3351
58.3321
58.329
58.326
58.3229
58.3199
58.3169
58.3138
58.3108
58.3078
58.3047
58.3017
58.2987
58.2956
58.2926
58.2895
58.2865
58.2835
58.2804
58.2774
58.2744
58.2714
58.2683
58.2653
58.2623
58.2592
58.2562
58.2532
58.2501
58.2471
58.2441
58.2411
58.238
58.235
58.232
58.229
58.2259
58.2229
58.2199
58.2168
58.2138
58.2108
58.2078
58.2048
58.2017
58.1987
58.1957
58.1927
58.1896
58.1866
58.1836
58.1806
58.1776
58.1745
58.1715
58.1685
58.1655
58.1625
58.1595
58.1564
58.1534
58.1504
58.1474
58.1444
58.1414
58.1384
58.1353
58.1323
58.1293
58.1263
58.1233
58.1203
58.1173
58.1143
58.1112
58.1082
58.1052
58.1022
58.0992
58.0962
58.0932
58.0902
58.0872
58.0842
58.0812
58.0782
58.0752
58.0721
58.0691
58.0661
58.0631
58.0601
58.0571
58.0541
58.0511
58.0481
58.0451
58.0421
58.0391
58.0361
58.0331
58.0301
58.0271
58.0241
58.0211
58.0181
58.0151
58.0121
58.0091
58.0061
58.0031
58.0001
57.9971
57.9942
57.9912
57.9882
57.9852
57.9822
57.9792
57.9762
57.9732
57.9702
57.9672
57.9642
57.9612
57.9582
57.9553
57.9523
57.9493
57.9463
57.9433
57.9403
57.9373
57.9343
57.9314
57.9284
57.9254
57.9224
57.9194
57.9164
57.9134
57.9105
57.9075
57.9045
57.9015
57.8985
57.8955
57.8926
57.8896
57.8866
57.8836
57.8806
57.8777
57.8747
57.8717
57.8687
57.8658
57.8628
57.8598
57.8568
57.8538
57.8509
57.8479
57.8449
57.8419
57.839
57.836
57.833
57.8301
57.8271
57.8241
57.8211
57.8182
57.8152
57.8122
57.8093
57.8063
57.8033
57.8003
57.7974
57.7944
57.7914
57.7885
57.7855
57.7825
57.7796
57.7766
57.7736
57.7707
57.7677
57.7648
57.7618
57.7588
57.7559
57.7529
57.7499
57.747
57.744
57.7411
57.7381
57.7351
57.7322
57.7292
57.7263
57.7233
57.7203
57.7174
57.7144
57.7115
57.7085
57.7056
57.7026
57.6996
57.6967
57.6937
57.6908
57.6878
57.6849
57.6819
57.679
57.676
57.6731
57.6701
57.6672
57.6642
57.6613
57.6583
57.6554
57.6524
57.6495
57.6465
57.6436
57.6406
57.6377
57.6347
57.6318
57.6288
57.6259
57.623
57.62
57.6171
57.6141
57.6112
57.6082
57.6053
57.6023
57.5994
57.5965
57.5935
57.5906
57.5876
57.5847
57.5818
57.5788
57.5759
57.5729
57.57
57.5671
57.5641
57.5612
57.5583
57.5553
57.5524
57.5495
57.5465
57.5436
57.5407
57.5377
57.5348
57.5319
57.5289
57.526
57.5231
57.5201
57.5172
57.5143
57.5113
57.5084
57.5055
57.5026
57.4996
57.4967
57.4938
57.4908
57.4879
57.485
57.4821
57.4791
57.4762
57.4733
57.4704
57.4674
57.4645
57.4616
57.4587
57.4557
57.4528
57.4499
57.447
57.4441
57.4411
57.4382
57.4353
57.4324
57.4295
57.4265
57.4236
57.4207
57.4178
57.4149
57.412
57.409
57.4061
57.4032
57.4003
57.3974
57.3945
57.3916
57.3886
57.3857
57.3828
57.3799
57.377
57.3741
57.3712
57.3683
57.3654
57.3624
57.3595
57.3566
57.3537
57.3508
57.3479
57.345
57.3421
57.3392
57.3363
57.3334
57.3305
57.3276
57.3247
57.3217
57.3188
57.3159
57.313
57.3101
57.3072
57.3043
57.3014
57.2985
57.2956
57.2927
57.2898
57.2869
57.284
57.2811
57.2782
57.2753
57.2724
57.2695
57.2666
57.2637
57.2608
57.258
57.2551
57.2522
57.2493
57.2464
57.2435
57.2406
57.2377
57.2348
57.2319
57.229
57.2261
57.2232
57.2203
57.2175
57.2146
57.2117
57.2088
57.2059
57.203
57.2001
57.1972
57.1944
57.1915
57.1886
57.1857
57.1828
57.1799
57.177
57.1742
57.1713
57.1684
57.1655
57.1626
57.1597
57.1569
57.154
57.1511
57.1482
57.1453
57.1425
57.1396
57.1367
57.1338
57.1309
57.1281
57.1252
57.1223
57.1194
57.1166
57.1137
57.1108
57.1079
57.1051
57.1022
57.0993
57.0964
57.0936
57.0907
57.0878
57.0849
57.0821
57.0792
57.0763
57.0735
57.0706
57.0677
57.0648
57.062
57.0591
57.0562
57.0534
57.0505
57.0476
57.0448
57.0419
57.039
57.0362
57.0333
57.0304
57.0276
57.0247
57.0219
57.019
57.0161
57.0133
57.0104
57.0075
57.0047
57.0018
56.999
56.9961
56.9932
56.9904
56.9875
56.9847
56.9818
56.979
56.9761
56.9732
56.9704
56.9675
56.9647
56.9618
56.959
56.9561
56.9533
56.9504
56.9475
56.9447
56.9418
56.939
56.9361
56.9333
56.9304
56.9276
56.9247
56.9219
56.919
56.9162
56.9133
56.9105
56.9076
56.9048
56.9019
56.8991
56.8963
56.8934
56.8906
56.8877
56.8849
56.882
56.8792
56.8763
56.8735
56.8707
56.8678
56.865
56.8621
56.8593
56.8564
56.8536
56.8508
56.8479
56.8451
56.8422
56.8394
56.8366
56.8337
56.8309
56.8281
56.8252
56.8224
56.8196
56.8167
56.8139
56.811
56.8082
56.8054
56.8025
56.7997
56.7969
56.794
56.7912
56.7884
56.7856
56.7827
56.7799
56.7771
56.7742
56.7714
56.7686
56.7657
56.7629
56.7601
56.7573
56.7544
56.7516
56.7488
56.746
56.7431
56.7403
56.7375
56.7347
56.7318
56.729
56.7262
56.7234
56.7205
56.7177
56.7149
56.7121
56.7093
56.7064
56.7036
56.7008
56.698
56.6952
56.6923
56.6895
56.6867
56.6839
56.6811
56.6783
56.6754
56.6726
56.6698
56.667
56.6642
56.6614
56.6586
56.6557
56.6529
56.6501
56.6473
56.6445
56.6417
56.6389
56.6361
56.6333
56.6304
56.6276
56.6248
56.622
56.6192
56.6164
56.6136
56.6108
56.608
56.6052
56.6024
56.5996
56.5968
56.5939
56.5911
56.5883
56.5855
56.5827
56.5799
56.5771
56.5743
56.5715
56.5687
56.5659
56.5631
56.5603
56.5575
56.5547
56.5519
56.5491
56.5463
56.5435
56.5407
56.5379
56.5351
56.5323
56.5295
56.5268
56.524
56.5212
56.5184
56.5156
56.5128
56.51
56.5072
56.5044
56.5016
56.4988
56.496
56.4932
56.4904
56.4877
56.4849
56.4821
56.4793
56.4765
56.4737
56.4709
56.4681
56.4653
56.4626
56.4598
56.457
56.4542
56.4514
56.4486
56.4458
56.4431
56.4403
56.4375
56.4347
56.4319
56.4292
56.4264
56.4236
56.4208
56.418
56.4152
56.4125
56.4097
56.4069
56.4041
56.4014
56.3986
56.3958
56.393
56.3902
56.3875
56.3847
56.3819
56.3791
56.3764
56.3736
56.3708
56.368
56.3653
56.3625
56.3597
56.357
56.3542
56.3514
56.3486
56.3459
56.3431
56.3403
56.3376
56.3348
56.332
56.3293
56.3265
56.3237
56.321
56.3182
56.3154
56.3127
56.3099
56.3071
56.3044
56.3016
56.2988
56.2961
56.2933
56.2905
56.2878
56.285
56.2823
56.2795
56.2767
56.274
56.2712
56.2685
56.2657
56.2629
56.2602
56.2574
56.2547
56.2519
56.2491
56.2464
56.2436
56.2409
56.2381
56.2354
56.2326
56.2299
56.2271
56.2243
56.2216
56.2188
56.2161
56.2133
56.2106
56.2078
56.2051
56.2023
56.1996
56.1968
56.1941
56.1913
56.1886
56.1858
56.1831
56.1803
56.1776
56.1748
56.1721
56.1694
56.1666
56.1639
56.1611
56.1584
56.1556
56.1529
56.1501
56.1474
56.1447
56.1419
56.1392
56.1364
56.1337
56.131
56.1282
56.1255
56.1227
56.12
56.1173
56.1145
56.1118
56.109
56.1063
56.1036
56.1008
56.0981
56.0954
56.0926
56.0899
56.0872
56.0844
56.0817
56.079
56.0762
56.0735
56.0708
56.068
56.0653
56.0626
56.0598
56.0571
56.0544
56.0516
56.0489
56.0462
56.0435
56.0407
56.038
56.0353
56.0325
56.0298
56.0271
56.0244
56.0216
56.0189
56.0162
56.0135
56.0107
56.008
56.0053
56.0026
55.9998
55.9971
55.9944
55.9917
55.989
55.9862
55.9835
55.9808
55.9781
55.9754
55.9726
55.9699
55.9672
55.9645
55.9618
55.9591
55.9563
55.9536
55.9509
55.9482
55.9455
55.9428
55.94
55.9373
55.9346
55.9319
55.9292
55.9265
55.9238
55.9211
55.9184
55.9156
55.9129
55.9102
55.9075
55.9048
55.9021
55.8994
55.8967
55.894
55.8913
55.8886
55.8858
55.8831
55.8804
55.8777
55.875
55.8723
55.8696
55.8669
55.8642
55.8615
55.8588
55.8561
55.8534
55.8507
55.848
55.8453
55.8426
55.8399
55.8372
55.8345
55.8318
55.8291
55.8264
55.8237
55.821
55.8183
55.8156
55.8129
55.8102
55.8075
55.8048
55.8021
55.7994
55.7967
55.7941
55.7914
55.7887
55.786
55.7833
55.7806
55.7779
55.7752
55.7725
55.7698
55.7671
55.7644
55.7618
55.7591
55.7564
55.7537
55.751
55.7483
55.7456
55.7429
55.7403
55.7376
55.7349
55.7322
55.7295
55.7268
55.7242
55.7215
55.7188
55.7161
55.7134
55.7107
55.7081
55.7054
55.7027
55.7
55.6973
55.6947
55.692
55.6893
55.6866
55.6839
55.6813
55.6786
55.6759
55.6732
55.6706
55.6679
55.6652
55.6625
55.6599
55.6572
55.6545
55.6518
55.6492
55.6465
55.6438
55.6411
55.6385
55.6358
55.6331
55.6305
55.6278
55.6251
55.6224
55.6198
55.6171
55.6144
55.6118
55.6091
55.6064
55.6038
55.6011
55.5984
55.5958
55.5931
55.5904
55.5878
55.5851
55.5824
55.5798
55.5771
55.5745
55.5718
55.5691
55.5665
55.5638
55.5612
55.5585
55.5558
55.5532
55.5505
55.5479
55.5452
55.5425
55.5399
55.5372
55.5346
55.5319
55.5293
55.5266
55.5239
55.5213
55.5186
55.516
55.5133
55.5107
55.508
55.5054
55.5027
55.5001
55.4974
55.4948
55.4921
55.4895
55.4868
55.4841
55.4815
55.4789
55.4762
55.4736
55.4709
55.4683
55.4656
55.463
55.4603
55.4577
55.455
55.4524
55.4497
55.4471
55.4444
55.4418
55.4392
55.4365
55.4339
55.4312
55.4286
55.4259
55.4233
55.4207
55.418
55.4154
55.4127
55.4101
55.4075
55.4048
55.4022
55.3995
55.3969
55.3943
55.3916
55.389
55.3864
55.3837
55.3811
55.3785
55.3758
55.3732
55.3706
55.3679
55.3653
55.3627
55.36
55.3574
55.3548
55.3521
55.3495
55.3469
55.3442
55.3416
55.339
55.3363
55.3337
55.3311
55.3285
55.3258
55.3232
55.3206
55.318
55.3153
55.3127
55.3101
55.3075
55.3048
55.3022
55.2996
55.297
55.2943
55.2917
55.2891
55.2865
55.2838
55.2812
55.2786
55.276
55.2734
55.2707
55.2681
55.2655
55.2629
55.2603
55.2576
55.255
55.2524
55.2498
55.2472
55.2446
55.2419
55.2393
55.2367
55.2341
55.2315
55.2289
55.2263
55.2236
55.221
55.2184
55.2158
55.2132
55.2106
55.208
55.2054
55.2028
55.2001
55.1975
55.1949
55.1923
55.1897
55.1871
55.1845
55.1819
55.1793
55.1767
55.1741
55.1715
55.1689
55.1663
55.1637
55.161
55.1584
55.1558
55.1532
55.1506
55.148
55.1454
55.1428
55.1402
55.1376
55.135
55.1324
55.1298
55.1272
55.1246
55.122
55.1194
55.1168
55.1142
55.1116
55.109
55.1064
55.1039
55.1013
55.0987
55.0961
55.0935
55.0909
55.0883
55.0857
55.0831
55.0805
55.0779
55.0753
55.0727
55.0701
55.0675
55.065
55.0624
55.0598
55.0572
55.0546
55.052
55.0494
55.0468
55.0442
55.0417
55.0391
55.0365
55.0339
55.0313
55.0287
55.0261
55.0236
55.021
55.0184
55.0158
55.0132
55.0106
55.0081
55.0055
55.0029
55.0003
54.9977
54.9952
54.9926
54.99
54.9874
54.9848
54.9823
54.9797
54.9771
54.9745
54.9719
54.9694
54.9668
54.9642
54.9616
54.9591
54.9565
54.9539
54.9513
54.9488
54.9462
54.9436
54.941
54.9385
54.9359
54.9333
54.9308
54.9282
54.9256
54.9231
54.9205
54.9179
54.9153
54.9128
54.9102
54.9076
54.9051
54.9025
54.8999
54.8974
54.8948
54.8922
54.8897
54.8871
54.8845
54.882
54.8794
54.8769
54.8743
54.8717
54.8692
54.8666
54.864
54.8615
54.8589
54.8564
54.8538
54.8512
54.8487
54.8461
54.8436
54.841
54.8384
54.8359
54.8333
54.8308
54.8282
54.8257
54.8231
54.8205
54.818
54.8154
54.8129
54.8103
54.8078
54.8052
54.8027
54.8001
54.7976
54.795
54.7925
54.7899
54.7874
54.7848
54.7823
54.7797
54.7772
54.7746
54.7721
54.7695
54.767
54.7644
54.7619
54.7593
54.7568
54.7542
54.7517
54.7491
54.7466
54.7441
54.7415
54.739
54.7364
54.7339
54.7313
54.7288
54.7263
54.7237
54.7212
54.7186
54.7161
54.7136
54.711
54.7085
54.7059
54.7034
54.7009
54.6983
54.6958
54.6932
54.6907
54.6882
54.6856
54.6831
54.6806
54.678
54.6755
54.673
54.6704
54.6679
54.6654
54.6628
54.6603
54.6578
54.6552
54.6527
54.6502
54.6476
54.6451
54.6426
54.6401
54.6375
54.635
54.6325
54.6299
54.6274
54.6249
54.6224
54.6198
54.6173
54.6148
54.6123
54.6097
54.6072
54.6047
54.6022
54.5996
54.5971
54.5946
54.5921
54.5895
54.587
54.5845
54.582
54.5795
54.5769
54.5744
54.5719
54.5694
54.5669
54.5643
54.5618
54.5593
54.5568
54.5543
54.5518
54.5492
54.5467
54.5442
54.5417
54.5392
54.5367
54.5341
54.5316
54.5291
54.5266
54.5241
54.5216
54.5191
54.5166
54.514
54.5115
54.509
54.5065
54.504
54.5015
54.499
54.4965
54.494
54.4915
54.489
54.4865
54.4839
54.4814
54.4789
54.4764
54.4739
54.4714
54.4689
54.4664
54.4639
54.4614
54.4589
54.4564
54.4539
54.4514
54.4489
54.4464
54.4439
54.4414
54.4389
54.4364
54.4339
54.4314
54.4289
54.4264
54.4239
54.4214
54.4189
54.4164
54.4139
54.4114
54.4089
54.4064
54.4039
54.4014
54.3989
54.3964
54.3939
54.3914
54.389
54.3865
54.384
54.3815
54.379
54.3765
54.374
54.3715
54.369
54.3665
54.364
54.3616
54.3591
54.3566
54.3541
54.3516
54.3491
54.3466
54.3441
54.3417
54.3392
54.3367
54.3342
54.3317
54.3292
54.3267
54.3243
54.3218
54.3193
54.3168
54.3143
54.3119
54.3094
54.3069
54.3044
54.3019
54.2995
54.297
54.2945
54.292
54.2895
54.2871
54.2846
54.2821
54.2796
54.2771
54.2747
54.2722
54.2697
54.2672
54.2648
54.2623
54.2598
54.2573
54.2549
54.2524
54.2499
54.2475
54.245
54.2425
54.24
54.2376
54.2351
54.2326
54.2302
54.2277
54.2252
54.2228
54.2203
54.2178
54.2153
54.2129
54.2104
54.2079
54.2055
54.203
54.2006
54.1981
54.1956
54.1932
54.1907
54.1882
54.1858
54.1833
54.1808
54.1784
54.1759
54.1735
54.171
54.1685
54.1661
54.1636
54.1612
54.1587
54.1562
54.1538
54.1513
54.1489
54.1464
54.1439
54.1415
54.139
54.1366
54.1341
54.1317
54.1292
54.1268
54.1243
54.1218
54.1194
54.1169
54.1145
54.112
54.1096
54.1071
54.1047
54.1022
54.0998
54.0973
54.0949
54.0924
54.09
54.0875
54.0851
54.0826
54.0802
54.0777
54.0753
54.0728
54.0704
54.068
54.0655
54.0631
54.0606
54.0582
54.0557
54.0533
54.0508
54.0484
54.046
54.0435
54.0411
54.0386
54.0362
54.0337
54.0313
54.0289
54.0264
54.024
54.0215
54.0191
54.0167
54.0142
54.0118
54.0094
54.0069
54.0045
54.002
53.9996
53.9972
53.9947
53.9923
53.9899
53.9874
53.985
53.9826
53.9801
53.9777
53.9753
53.9728
53.9704
53.968
53.9655
53.9631
53.9607
53.9583
53.9558
53.9534
53.951
53.9485
53.9461
53.9437
53.9413
53.9388
53.9364
53.934
53.9315
53.9291
53.9267
53.9243
53.9218
53.9194
53.917
53.9146
53.9122
53.9097
53.9073
53.9049
53.9025
53.9
53.8976
53.8952
53.8928
53.8904
53.8879
53.8855
53.8831
53.8807
53.8783
53.8759
53.8734
53.871
53.8686
53.8662
53.8638
53.8614
53.8589
53.8565
53.8541
53.8517
53.8493
53.8469
53.8445
53.842
53.8396
53.8372
53.8348
53.8324
53.83
53.8276
53.8252
53.8228
53.8203
53.8179
53.8155
53.8131
53.8107
53.8083
53.8059
53.8035
53.8011
53.7987
53.7963
53.7939
53.7915
53.7891
53.7866
53.7842
53.7818
53.7794
53.777
53.7746
53.7722
53.7698
53.7674
53.765
53.7626
53.7602
53.7578
53.7554
53.753
53.7506
53.7482
53.7458
53.7434
53.741
53.7386
53.7362
53.7338
53.7314
53.729
53.7267
53.7243
53.7219
53.7195
53.7171
53.7147
53.7123
53.7099
53.7075
53.7051
53.7027
53.7003
53.6979
53.6955
53.6932
53.6908
53.6884
53.686
53.6836
53.6812
53.6788
53.6764
53.674
53.6717
53.6693
53.6669
53.6645
53.6621
53.6597
53.6573
53.655
53.6526
53.6502
53.6478
53.6454
53.643
53.6406
53.6383
53.6359
53.6335
53.6311
53.6287
53.6264
53.624
53.6216
53.6192
53.6168
53.6145
53.6121
53.6097
53.6073
53.605
53.6026
53.6002
53.5978
53.5954
53.5931
53.5907
53.5883
53.5859
53.5836
53.5812
53.5788
53.5764
53.5741
53.5717
53.5693
53.567
53.5646
53.5622
53.5598
53.5575
53.5551
53.5527
53.5504
53.548
53.5456
53.5433
53.5409
53.5385
53.5362
53.5338
53.5314
53.5291
53.5267
53.5243
53.522
53.5196
53.5172
53.5149
53.5125
53.5101
53.5078
53.5054
53.5031
53.5007
53.4983
53.496
53.4936
53.4912
53.4889
53.4865
53.4842
53.4818
53.4795
53.4771
53.4747
53.4724
53.47
53.4677
53.4653
53.463
53.4606
53.4582
53.4559
53.4535
53.4512
53.4488
53.4465
53.4441
53.4418
53.4394
53.4371
53.4347
53.4324
53.43
53.4277
53.4253
53.423
53.4206
53.4183
53.4159
53.4136
53.4112
53.4089
53.4065
53.4042
53.4018
53.3995
53.3971
53.3948
53.3924
53.3901
53.3877
53.3854
53.3831
53.3807
53.3784
53.376
53.3737
53.3713
53.369
53.3667
53.3643
53.362
53.3596
53.3573
53.3549
53.3526
53.3503
53.3479
53.3456
53.3433
53.3409
53.3386
53.3362
53.3339
53.3316
53.3292
53.3269
53.3246
53.3222
53.3199
53.3176
53.3152
53.3129
53.3106
53.3082
53.3059
53.3036
53.3012
53.2989
53.2966
53.2942
53.2919
53.2896
53.2872
53.2849
53.2826
53.2803
53.2779
53.2756
53.2733
53.2709
53.2686
53.2663
53.264
53.2616
53.2593
53.257
53.2547
53.2523
53.25
53.2477
53.2454
53.243
53.2407
53.2384
53.2361
53.2338
53.2314
53.2291
53.2268
53.2245
53.2221
53.2198
53.2175
53.2152
53.2129
53.2106
53.2082
53.2059
53.2036
53.2013
53.199
53.1967
53.1943
53.192
53.1897
53.1874
53.1851
53.1828
53.1805
53.1781
53.1758
53.1735
53.1712
53.1689
53.1666
53.1643
53.162
53.1596
53.1573
53.155
53.1527
53.1504
53.1481
53.1458
53.1435
53.1412
53.1389
53.1366
53.1343
53.1319
53.1296
53.1273
53.125
53.1227
53.1204
53.1181
53.1158
53.1135
53.1112
53.1089
53.1066
53.1043
53.102
53.0997
53.0974
53.0951
53.0928
53.0905
53.0882
53.0859
53.0836
53.0813
53.079
53.0767
53.0744
53.0721
53.0698
53.0675
53.0652
53.0629
53.0606
53.0583
53.056
53.0537
53.0514
53.0491
53.0469
53.0446
53.0423
53.04
53.0377
53.0354
53.0331
53.0308
53.0285
53.0262
53.0239
53.0217
53.0194
53.0171
53.0148
53.0125
53.0102
53.0079
53.0056
53.0033
53.0011
52.9988
52.9965
52.9942
52.9919
52.9896
52.9874
52.9851
52.9828
52.9805
52.9782
52.9759
52.9737
52.9714
52.9691
52.9668
52.9645
52.9622
52.96
52.9577
52.9554
52.9531
52.9508
52.9486
52.9463
52.944
52.9417
52.9395
52.9372
52.9349
52.9326
52.9304
52.9281
52.9258
52.9235
52.9213
52.919
52.9167
52.9144
52.9122
52.9099
52.9076
52.9053
52.9031
52.9008
52.8985
52.8963
52.894
52.8917
52.8895
52.8872
52.8849
52.8826
52.8804
52.8781
52.8758
52.8736
52.8713
52.869
52.8668
52.8645
52.8622
52.86
52.8577
52.8555
52.8532
52.8509
52.8487
52.8464
52.8441
52.8419
52.8396
52.8374
52.8351
52.8328
52.8306
52.8283
52.8261
52.8238
52.8215
52.8193
52.817
52.8148
52.8125
52.8102
52.808
52.8057
52.8035
52.8012
52.799
52.7967
52.7945
52.7922
52.7899
52.7877
52.7854
52.7832
52.7809
52.7787
52.7764
52.7742
52.7719
52.7697
52.7674
52.7652
52.7629
52.7607
52.7584
52.7562
52.7539
52.7517
52.7494
52.7472
52.7449
52.7427
52.7404
52.7382
52.7359
52.7337
52.7315
52.7292
52.727
52.7247
52.7225
52.7202
52.718
52.7158
52.7135
52.7113
52.709
52.7068
52.7045
52.7023
52.7001
52.6978
52.6956
52.6933
52.6911
52.6889
52.6866
52.6844
52.6822
52.6799
52.6777
52.6754
52.6732
52.671
52.6687
52.6665
52.6643
52.662
52.6598
52.6576
52.6553
52.6531
52.6509
52.6486
52.6464
52.6442
52.6419
52.6397
52.6375
52.6352
52.633
52.6308
52.6286
52.6263
52.6241
52.6219
52.6196
52.6174
52.6152
52.613
52.6107
52.6085
52.6063
52.6041
52.6018
52.5996
52.5974
52.5952
52.5929
52.5907
52.5885
52.5863
52.584
52.5818
52.5796
52.5774
52.5752
52.5729
52.5707
52.5685
52.5663
52.5641
52.5618
52.5596
52.5574
52.5552
52.553
52.5507
52.5485
52.5463
52.5441
52.5419
52.5397
52.5375
52.5352
52.533
52.5308
52.5286
52.5264
52.5242
52.522
52.5197
52.5175
52.5153
52.5131
52.5109
52.5087
52.5065
52.5043
52.5021
52.4998
52.4976
52.4954
52.4932
52.491
52.4888
52.4866
52.4844
52.4822
52.48
52.4778
52.4756
52.4734
52.4712
52.469
52.4667
52.4645
52.4623
52.4601
52.4579
52.4557
52.4535
52.4513
52.4491
52.4469
52.4447
52.4425
52.4403
52.4381
52.4359
52.4337
52.4315
52.4293
52.4271
52.4249
52.4227
52.4205
52.4183
52.4161
52.4139
52.4118
52.4096
52.4074
52.4052
52.403
52.4008
52.3986
52.3964
52.3942
52.392
52.3898
52.3876
52.3854
52.3832
52.381
52.3789
52.3767
52.3745
52.3723
52.3701
52.3679
52.3657
52.3635
52.3613
52.3592
52.357
52.3548
52.3526
52.3504
52.3482
52.346
52.3439
52.3417
52.3395
52.3373
52.3351
52.3329
52.3308
52.3286
52.3264
52.3242
52.322
52.3198
52.3177
52.3155
52.3133
52.3111
52.3089
52.3068
52.3046
52.3024
52.3002
52.298
52.2959
52.2937
52.2915
52.2893
52.2872
52.285
52.2828
52.2806
52.2785
52.2763
52.2741
52.2719
52.2698
52.2676
52.2654
52.2632
52.2611
52.2589
52.2567
52.2546
52.2524
52.2502
52.2481
52.2459
52.2437
52.2415
52.2394
52.2372
52.235
52.2329
52.2307
52.2285
52.2264
52.2242
52.222
52.2199
52.2177
52.2155
52.2134
52.2112
52.209
52.2069
52.2047
52.2026
52.2004
52.1982
52.1961
52.1939
52.1918
52.1896
52.1874
52.1853
52.1831
52.1809
52.1788
52.1766
52.1745
52.1723
52.1702
52.168
52.1658
52.1637
52.1615
52.1594
52.1572
52.1551
52.1529
52.1508
52.1486
52.1464
52.1443
52.1421
52.14
52.1378
52.1357
52.1335
52.1314
52.1292
52.1271
52.1249
52.1228
52.1206
52.1185
52.1163
52.1142
52.112
52.1099
52.1077
52.1056
52.1034
52.1013
52.0991
52.097
52.0948
52.0927
52.0906
52.0884
52.0863
52.0841
52.082
52.0798
52.0777
52.0755
52.0734
52.0713
52.0691
52.067
52.0648
52.0627
52.0606
52.0584
52.0563
52.0541
52.052
52.0499
52.0477
52.0456
52.0434
52.0413
52.0392
52.037
52.0349
52.0328
52.0306
52.0285
52.0264
52.0242
52.0221
52.02
52.0178
52.0157
52.0136
52.0114
52.0093
52.0072
52.005
52.0029
52.0008
51.9986
51.9965
51.9944
51.9922
51.9901
51.988
51.9859
51.9837
51.9816
51.9795
51.9773
51.9752
51.9731
51.971
51.9688
51.9667
51.9646
51.9625
51.9603
51.9582
51.9561
51.954
51.9518
51.9497
51.9476
51.9455
51.9433
51.9412
51.9391
51.937
51.9349
51.9327
51.9306
51.9285
51.9264
51.9243
51.9221
51.92