# vtk DataFile Version 2.0
vtk output
ASCII
DATASET STRUCTURED_GRID
DIMENSIONS 50 10 30
POINTS 15000 float
0 0 0
1 0 0
2 0 0
3 0 0
4 0 0
5 0 0
6 0 0
7 0 0
8 0 0
9 0 0
10 0 0
11 0 0
12 0 0
13 0 0
14 0 0
15 0 0
16 0 0
17 0 0
18 0 0
19 0 0
20 0 0
21 0 0
22 0 0
23 0 0
24 0 0
25 0 0
26 0 0
27 0 0
28 0 0
29 0 0
30 0 0
31 0 0
32 0 0
33 0 0
34 0 0
35 0 0
36 0 0
37 0 0
38 0 0
39 0 0
40 0 0
41 0 0
42 0 0
43 0 0
44 0 0
45 0 0
46 0 0
47 0 0
48 0 0
49 0 0
0 1 0
1 1 0
2 1 0
3 1 0
4 1 0
5 1 0
6 1 0
7 1 0
8 1 0
9 1 0
10 1 0
11 1 0
12 1 0
13 1 0
14 1 0
15 1 0
16 1 0
17 1 0
18 1 0
19 1 0
20 1 0
21 1 0
22 1 0
23 1 0
24 1 0
25 1 0
26 1 0
27 1 0
28 1 0
29 1 0
30 1 0
31 1 0
32 1 0
33 1 0
34 1 0
35 1 0
36 1 0
37 1 0
38 1 0
39 1 0
40 1 0
41 1 0
42 1 0
43 1 0
44 1 0
45 1 0
46 1 0
47 1 0
48 1 0
49 1 0
0 2 0
1 2 0
2 2 0
3 2 0
4 2 0
5 2 0
6 2 0
7 2 0
8 2 0
9 2 0
10 2 0
11 2 0
12 2 0
13 2 0
14 2 0
15 2 0
16 2 0
17 2 0
18 2 0
19 2 0
20 2 0
21 2 0
22 2 0
23 2 0
24 2 0
25 2 0
26 2 0
27 2 0
28 2 0
29 2 0
30 2 0
31 2 0
32 2 0
33 2 0
34 2 0
35 2 0
36 2 0
37 2 0
38 2 0
39 2 0
40 2 0
41 2 0
42 2 0
43 2 0
44 2 0
45 2 0
46 2 0
47 2 0
48 2 0
49 2 0
0 3 0
1 3 0
2 3 0
3 3 0
4 3 0
5 3 0
6 3 0
7 3 0
8 3 0
9 3 0
10 3 0
11 3 0
12 3 0
13 3 0
14 3 0
15 3 0
16 3 0
17 3 0
18 3 0
19 3 0
20 3 0
21 3 0
22 3 0
23 3 0
24 3 0
25 3 0
26 3 0
27 3 0
28 3 0
29 3 0
30 3 0
31 3 0
32 3 0
33 3 0
34 3 0
35 3 0
36 3 0
37 3 0
38 3 0
39 3 0
40 3 0
41 3 0
42 3 0
43 3 0
44 3 0
45 3 0
46 3 0
47 3 0
48 3 0
49 3 0
0 4 0
1 4 0
2 4 0
3 4 0
4 4 0
5 4 0
6 4 0
7 4 0
8 4 0
9 4 0
10 4 0
11 4 0
12 4 0
13 4 0
14 4 0
15 4 0
16 4 0
17 4 0
18 4 0
19 4 0
20 4 0
21 4 0
22 4 0
23 4 0
24 4 0
25 4 0
26 4 0
27 4 0
28 4 0
29 4 0
30 4 0
31 4 0
32 4 0
33 4 0
34 4 0
35 4 0
36 4 0
37 4 0
38 4 0
39 4 0
40 4 0
41 4 0
42 4 0
43 4 0
44 4 0
45 4 0
46 4 0
47 4 0
48 4 0
49 4 0
0 5 0
1 5 0
2 5 0
3 5 0
4 5 0
5 5 0
6 5 0
7 5 0
8 5 0
9 5 0
10 5 0
11 5 0
12 5 0
13 5 0
14 5 0
15 5 0
16 5 0
17 5 0
18 5 0
19 5 0
20 5 0
21 5 0
22 5 0
23 5 0
24 5 0
25 5 0
26 5 0
27 5 0
28 5 0
29 5 0
30 5 0
31 5 0
32 5 0
33 5 0
34 5 0
35 5 0
36 5 0
37 5 0
38 5 0
39 5 0
40 5 0
41 5 0
42 5 0
43 5 0
44 5 0
45 5 0
46 5 0
47 5 0
48 5 0
49 5 0
0 6 0
1 6 0
2 6 0
3 6 0
4 6 0
5 6 0
6 6 0
7 6 0
8 6 0
9 6 0
10 6 0
11 6 0
12 6 0
13 6 0
14 6 0
15 6 0
16 6 0
17 6 0
18 6 0
19 6 0
20 6 0
21 6 0
22 6 0
23 6 0
24 6 0
25 6 0
26 6 0
27 6 0
28 6 0
29 6 0
30 6 0
31 6 0
32 6 0
33 6 0
34 6 0
35 6 0
36 6 0
37 6 0
38 6 0
39 6 0
40 6 0
41 6 0
42 6 0
43 6 0
44 6 0
45 6 0
46 6 0
47 6 0
48 6 0
49 6 0
0 7 0
1 7 0
2 7 0
3 7 0
4 7 0
5 7 0
6 7 0
7 7 0
8 7 0
9 7 0
10 7 0
11 7 0
12 7 0
13 7 0
14 7 0
15 7 0
16 7 0
17 7 0
18 7 0
19 7 0
20 7 0
21 7 0
22 7 0
23 7 0
24 7 0
25 7 0
26 7 0
27 7 0
28 7 0
29 7 0
30 7 0
31 7 0
32 7 0
33 7 0
34 7 0
35 7 0
36 7 0
37 7 0
38 7 0
39 7 0
40 7 0
41 7 0
42 7 0
43 7 0
44 7 0
45 7 0
46 7 0
47 7 0
48 7 0
49 7 0
0 8 0
1 8 0
2 8 0
3 8 0
4 8 0
5 8 0
6 8 0
7 8 0
8 8 0
9 8 0
10 8 0
11 8 0
12 8 0
13 8 0
14 8 0
15 8 0
16 8 0
17 8 0
18 8 0
19 8 0
20 8 0
21 8 0
22 8 0
23 8 0
24 8 0
25 8 0
26 8 0
27 8 0
28 8 0
29 8 0
30 8 0
31 8 0
32 8 0
33 8 0
34 8 0
35 8 0
36 8 0
37 8 0
38 8 0
39 8 0
40 8 0
41 8 0
42 8 0
43 8 0
44 8 0
45 8 0
46 8 0
47 8 0
48 8 0
49 8 0
0 9 0
1 9 0
2 9 0
3 9 0
4 9 0
5 9 0
6 9 0
7 9 0
8 9 0
9 9 0
10 9 0
11 9 0
12 9 0
13 9 0
14 9 0
15 9 0
16 9 0
17 9 0
18 9 0
19 9 0
20 9 0
21 9 0
22 9 0
23 9 0
24 9 0
25 9 0
26 9 0
27 9 0
28 9 0
29 9 0
30 9 0
31 9 0
32 9 0
33 9 0
34 9 0
35 9 0
36 9 0
37 9 0
38 9 0
39 9 0
40 9 0
41 9 0
42 9 0
43 9 0
44 9 0
45 9 0
46 9 0
47 9 0
48 9 0
49 9 0
0 0 1
1 0 1
2 0 1
3 0 1
4 0 1
5 0 1
6 0 1
7 0 1
8 0 1
9 0 1
10 0 1
11 0 1
12 0 1
13 0 1
14 0 1
15 0 1
16 0 1
17 0 1
18 0 1
19 0 1
20 0 1
21 0 1
22 0 1
23 0 1
24 0 1
25 0 1
26 0 1
27 0 1
28 0 1
29 0 1
30 0 1
31 0 1
32 0 1
33 0 1
34 0 1
35 0 1
36 0 1
37 0 1
38 0 1
39 0 1
40 0 1
41 0 1
42 0 1
43 0 1
44 0 1
45 0 1
46 0 1
47 0 1
48 0 1
49 0 1
0 1 1
1 1 1
2 1 1
3 1 1
4 1 1
5 1 1
6 1 1
7 1 1
8 1 1
9 1 1
10 1 1
11 1 1
12 1 1
13 1 1
14 1 1
15 1 1
16 1 1
17 1 1
18 1 1
19 1 1
20 1 1
21 1 1
22 1 1
23 1 1
24 1 1
25 1 1
26 1 1
27 1 1
28 1 1
29 1 1
30 1 1
31 1 1
32 1 1
33 1 1
34 1 1
35 1 1
36 1 1
37 1 1
38 1 1
39 1 1
40 1 1
41 1 1
42 1 1
43 1 1
44 1 1
45 1 1
46 1 1
47 1 1
48 1 1
49 1 1
0 2 1
1 2 1
2 2 1
3 2 1
4 2 1
5 2 1
6 2 1
7 2 1
8 2 1
9 2 1
10 2 1
11 2 1
12 2 1
13 2 1
14 2 1
15 2 1
16 2 1
17 2 1
18 2 1
19 2 1
20 2 1
21 2 1
22 2 1
23 2 1
24 2 1
25 2 1
26 2 1
27 2 1
28 2 1
29 2 1
30 2 1
31 2 1
32 2 1
33 2 1
34 2 1
35 2 1
36 2 1
37 2 1
38 2 1
39 2 1
40 2 1
41 2 1
42 2 1
43 2 1
44 2 1
45 2 1
46 2 1
47 2 1
48 2 1
49 2 1
0 3 1
1 3 1
2 3 1
3 3 1
4 3 1
5 3 1
6 3 1
7 3 1
8 3 1
9 3 1
10 3 1
11 3 1
12 3 1
13 3 1
14 3 1
15 3 1
16 3 1
17 3 1
18 3 1
19 3 1
20 3 1
21 3 1
22 3 1
23 3 1
24 3 1
25 3 1
26 3 1
27 3 1
28 3 1
29 3 1
30 3 1
31 3 1
32 3 1
33 3 1
34 3 1
35 3 1
36 3 1
37 3 1
38 3 1
39 3 1
40 3 1
41 3 1
42 3 1
43 3 1
44 3 1
45 3 1
46 3 1
47 3 1
48 3 1
49 3 1
0 4 1
1 4 1
2 4 1
3 4 1
4 4 1
5 4 1
6 4 1
7 4 1
8 4 1
9 4 1
10 4 1
11 4 1
12 4 1
13 4 1
14 4 1
15 4 1
16 4 1
17 4 1
18 4 1
19 4 1
20 4 1
21 4 1
22 4 1
23 4 1
24 4 1
25 4 1
26 4 1
27 4 1
28 4 1
29 4 1
30 4 1
31 4 1
32 4 1
33 4 1
34 4 1
35 4 1
36 4 1
37 4 1
38 4 1
39 4 1
40 4 1
41 4 1
42 4 1
43 4 1
44 4 1
45 4 1
46 4 1
47 4 1
48 4 1
49 4 1
0 5 1
1 5 1
2 5 1
3 5 1
4 5 1
5 5 1
6 5 1
7 5 1
8 5 1
9 5 1
10 5 1
11 5 1
12 5 1
13 5 1
14 5 1
15 5 1
16 5 1
17 5 1
18 5 1
19 5 1
20 5 1
21 5 1
22 5 1
23 5 1
24 5 1
25 5 1
26 5 1
27 5 1
28 5 1
29 5 1
30 5 1
31 5 1
32 5 1
33 5 1
34 5 1
35 5 1
36 5 1
37 5 1
38 5 1
39 5 1
40 5 1
41 5 1
42 5 1
43 5 1
44 5 1
45 5 1
46 5 1
47 5 1
48 5 1
49 5 1
0 6 1
1 6 1
2 6 1
3 6 1
4 6 1
5 6 1
6 6 1
7 6 1
8 6 1
9 6 1
10 6 1
11 6 1
12 6 1
13 6 1
14 6 1
15 6 1
16 6 1
17 6 1
18 6 1
19 6 1
20 6 1
21 6 1
22 6 1
23 6 1
24 6 1
25 6 1
26 6 1
27 6 1
28 6 1
29 6 1
30 6 1
31 6 1
32 6 1
33 6 1
34 6 1
35 6 1
36 6 1
37 6 1
38 6 1
39 6 1
40 6 1
41 6 1
42 6 1
43 6 1
44 6 1
45 6 1
46 6 1
47 6 1
48 6 1
49 6 1
0 7 1
1 7 1
2 7 1
3 7 1
4 7 1
5 7 1
6 7 1
7 7 1
8 7 1
9 7 1
10 7 1
11 7 1
12 7 1
13 7 1
14 7 1
15 7 1
16 7 1
17 7 1
18 7 1
19 7 1
20 7 1
21 7 1
22 7 1
23 7 1
24 7 1
25 7 1
26 7 1
27 7 1
28 7 1
29 7 1
30 7 1
31 7 1
32 7 1
33 7 1
34 7 1
35 7 1
36 7 1
37 7 1
38 7 1
39 7 1
40 7 1
41 7 1
42 7 1
43 7 1
44 7 1
45 7 1
46 7 1
47 7 1
48 7 1
49 7 1
0 8 1
1 8 1
2 8 1
3 8 1
4 8 1
5 8 1
6 8 1
7 8 1
8 8 1
9 8 1
10 8 1
11 8 1
12 8 1
13 8 1
14 8 1
15 8 1
16 8 1
17 8 1
18 8 1
19 8 1
20 8 1
21 8 1
22 8 1
23 8 1
24 8 1
25 8 1
26 8 1
27 8 1
28 8 1
29 8 1
30 8 1
31 8 1
32 8 1
33 8 1
34 8 1
35 8 1
36 8 1
37 8 1
38 8 1
39 8 1
40 8 1
41 8 1
42 8 1
43 8 1
44 8 1
45 8 1
46 8 1
47 8 1
48 8 1
49 8 1
0 9 1
1 9 1
2 9 1
3 9 1
4 9 1
5 9 1
6 9 1
7 9 1
8 9 1
9 9 1
10 9 1
11 9 1
12 9 1
13 9 1
14 9 1
15 9 1
16 9 1
17 9 1
18 9 1
19 9 1
20 9 1
21 9 1
22 9 1
23 9 1
24 9 1
25 9 1
26 9 1
27 9 1
28 9 1
29 9 1
30 9 1
31 9 1
32 9 1
33 9 1
34 9 1
35 9 1
36 9 1
37 9 1
38 9 1
39 9 1
40 9 1
41 9 1
42 9 1
43 9 1
44 9 1
45 9 1
46 9 1
47 9 1
48 9 1
49 9 1
0 0 2
1 0 2
2 0 2
3 0 2
4 0 2
5 0 2
6 0 2
7 0 2
8 0 2
9 0 2
10 0 2
11 0 2
12 0 2
13 0 2
14 0 2
15 0 2
16 0 2
17 0 2
18 0 2
19 0 2
20 0 2
21 0 2
22 0 2
23 0 2
24 0 2
25 0 2
26 0 2
27 0 2
28 0 2
29 0 2
30 0 2
31 0 2
32 0 2
33 0 2
34 0 2
35 0 2
36 0 2
37 0 2
38 0 2
39 0 2
40 0 2
41 0 2
42 0 2
43 0 2
44 0 2
45 0 2
46 0 2
47 0 2
48 0 2
49 0 2
0 1 2
1 1 2
2 1 2
3 1 2
4 1 2
5 1 2
6 1 2
7 1 2
8 1 2
9 1 2
10 1 2
11 1 2
12 1 2
13 1 2
14 1 2
15 1 2
16 1 2
17 1 2
18 1 2
19 1 2
20 1 2
21 1 2
22 1 2
23 1 2
24 1 2
25 1 2
26 1 2
27 1 2
28 1 2
29 1 2
30 1 2
31 1 2
32 1 2
33 1 2
34 1 2
35 1 2
36 1 2
37 1 2
38 1 2
39 1 2
40 1 2
41 1 2
42 1 2
43 1 2
44 1 2
45 1 2
46 1 2
47 1 2
48 1 2
49 1 2
0 2 2
1 2 2
2 2 2
3 2 2
4 2 2
5 2 2
6 2 2
7 2 2
8 2 2
9 2 2
10 2 2
11 2 2
12 2 2
13 2 2
14 2 2
15 2 2
16 2 2
17 2 2
18 2 2
19 2 2
20 2 2
21 2 2
22 2 2
23 2 2
24 2 2
25 2 2
26 2 2
27 2 2
28 2 2
29 2 2
30 2 2
31 2 2
32 2 2
33 2 2
34 2 2
35 2 2
36 2 2
37 2 2
38 2 2
39 2 2
40 2 2
41 2 2
42 2 2
43 2 2
44 2 2
45 2 2
46 2 2
47 2 2
48 2 2
49 2 2
0 3 2
1 3 2
2 3 2
3 3 2
4 3 2
5 3 2
6 3 2
7 3 2
8 3 2
9 3 2
10 3 2
11 3 2
12 3 2
13 3 2
14 3 2
15 3 2
16 3 2
17 3 2
18 3 2
19 3 2
20 3 2
21 3 2
22 3 2
23 3 2
24 3 2
25 3 2
26 3 2
27 3 2
28 3 2
29 3 2
30 3 2
31 3 2
32 3 2
33 3 2
34 3 2
35 3 2
36 3 2
37 3 2
38 3 2
39 3 2
40 3 2
41 3 2
42 3 2
43 3 2
44 3 2
45 3 2
46 3 2
47 3 2
48 3 2
49 3 2
0 4 2
1 4 2
2 4 2
3 4 2
4 4 2
5 4 2
6 4 2
7 4 2
8 4 2
9 4 2
10 4 2
11 4 2
12 4 2
13 4 2
14 4 2
15 4 2
16 4 2
17 4 2
18 4 2
19 4 2
20 4 2
21 4 2
22 4 2
23 4 2
24 4 2
25 4 2
26 4 2
27 4 2
28 4 2
29 4 2
30 4 2
31 4 2
32 4 2
33 4 2
34 4 2
35 4 2
36 4 2
37 4 2
38 4 2
39 4 2
40 4 2
41 4 2
42 4 2
43 4 2
44 4 2
45 4 2
46 4 2
47 4 2
48 4 2
49 4 2
0 5 2
1 5 2
2 5 2
3 5 2
4 5 2
5 5 2
6 5 2
7 5 2
8 5 2
9 5 2
10 5 2
11 5 2
12 5 2
13 5 2
14 5 2
15 5 2
16 5 2
17 5 2
18 5 2
19 5 2
20 5 2
21 5 2
22 5 2
23 5 2
24 5 2
25 5 2
26 5 2
27 5 2
28 5 2
29 5 2
30 5 2
31 5 2
32 5 2
33 5 2
34 5 2
35 5 2
36 5 2
37 5 2
38 5 2
39 5 2
40 5 2
41 5 2
42 5 2
43 5 2
44 5 2
45 5 2
46 5 2
47 5 2
48 5 2
49 5 2
0 6 2
1 6 2
2 6 2
3 6 2
4 6 2
5 6 2
6 6 2
7 6 2
8 6 2
9 6 2
10 6 2
11 6 2
12 6 2
13 6 2
14 6 2
15 6 2
16 6 2
17 6 2
18 6 2
19 6 2
20 6 2
21 6 2
22 6 2
23 6 2
24 6 2
25 6 2
26 6 2
27 6 2
28 6 2
29 6 2
30 6 2
31 6 2
32 6 2
33 6 2
34 6 2
35 6 2
36 6 2
37 6 2
38 6 2
39 6 2
40 6 2
41 6 2
42 6 2
43 6 2
44 6 2
45 6 2
46 6 2
47 6 2
48 6 2
49 6 2
0 7 2
1 7 2
2 7 2
3 7 2
4 7 2
5 7 2
6 7 2
7 7 2
8 7 2
9 7 2
10 7 2
11 7 2
12 7 2
13 7 2
14 7 2
15 7 2
16 7 2
17 7 2
18 7 2
19 7 2
20 7 2
21 7 2
22 7 2
23 7 2
24 7 2
25 7 2
26 7 2
27 7 2
28 7 2
29 7 2
30 7 2
31 7 2
32 7 2
33 7 2
34 7 2
35 7 2
36 7 2
37 7 2
38 7 2
39 7 2
40 7 2
41 7 2
42 7 2
43 7 2
44 7 2
45 7 2
46 7 2
47 7 2
48 7 2
49 7 2
0 8 2
1 8 2
2 8 2
3 8 2
4 8 2
5 8 2
6 8 2
7 8 2
8 8 2
9 8 2
10 8 2
11 8 2
12 8 2
13 8 2
14 8 2
15 8 2
16 8 2
17 8 2
18 8 2
19 8 2
20 8 2
21 8 2
22 8 2
23 8 2
24 8 2
25 8 2
26 8 2
27 8 2
28 8 2
29 8 2
30 8 2
31 8 2
32 8 2
33 8 2
34 8 2
35 8 2
36 8 2
37 8 2
38 8 2
39 8 2
40 8 2
41 8 2
42 8 2
43 8 2
44 8 2
45 8 2
46 8 2
47 8 2
48 8 2
49 8 2
0 9 2
1 9 2
2 9 2
3 9 2
4 9 2
[...]
POINT_DATA 15000
SCALARS sol23 float
LOOKUP_TABLE default
40.5649
40.5618
40.5588
40.5557
40.5527
40.5496
40.5466
40.5435
40.5405
40.5374
40.5344
40.5313
40.5283
40.5253
40.5222
40.5192
40.5161
40.5131
40.51
40.507
40.504
40.5009
40.4979
40.4948
40.4918
40.4888
40.4857
40.4827
40.4796
40.4766
40.4736
40.4705
40.4675
40.4645
40.4614
40.4584
40.4554
40.4523
40.4493
40.4463
40.4432
40.4402
40.4372
40.4341
40.4311
40.4281
40.425
40.422
40.419
40.4159
40.4129
40.4099
40.4069
40.4038
40.4008
40.3978
40.3948
40.3917
40.3887
40.3857
40.3827
40.3796
40.3766
40.3736
40.3706
40.3675
40.3645
40.3615
40.3585
40.3555
40.3524
40.3494
40.3464
40.3434
40.3404
40.3373
40.3343
40.3313
40.3283
40.3253
40.3222
40.3192
40.3162
40.3132
40.3102
40.3072
40.3042
40.3011
40.2981
40.2951
40.2921
40.2891
40.2861
40.2831
40.2801
40.277
40.274
40.271
40.268
40.265
40.262
40.259
40.256
40.253
40.25
40.247
40.244
40.241
40.238
40.2349
40.2319
40.2289
40.2259
40.2229
40.2199
40.2169
40.2139
40.2109
40.2079
40.2049
40.2019
40.1989
40.1959
40.1929
40.1899
40.1869
40.1839
40.1809
40.1779
40.1749
40.1719
40.1689
40.166
40.163
40.16
40.157
40.154
40.151
40.148
40.145
40.142
40.139
40.136
40.133
40.13
40.1271
40.1241
40.1211
40.1181
40.1151
40.1121
40.1091
40.1061
40.1031
40.1002
40.0972
40.0942
40.0912
40.0882
40.0852
40.0823
40.0793
40.0763
40.0733
40.0703
40.0673
40.0644
40.0614
40.0584
40.0554
40.0524
40.0495
40.0465
40.0435
40.0405
40.0375
40.0346
40.0316
40.0286
40.0256
40.0227
40.0197
40.0167
40.0137
40.0108
40.0078
40.0048
40.0018
39.9989
39.9959
39.9929
39.99
39.987
39.984
39.981
39.9781
39.9751
39.9721
39.9692
39.9662
39.9632
39.9603
39.9573
39.9543
39.9514
39.9484
39.9454
39.9425
39.9395
39.9365
39.9336
39.9306
39.9276
39.9247
39.9217
39.9188
39.9158
39.9128
39.9099
39.9069
39.904
39.901
39.898
39.8951
39.8921
39.8892
39.8862
39.8833
39.8803
39.8773
39.8744
39.8714
39.8685
39.8655
39.8626
39.8596
39.8567
39.8537
39.8508
39.8478
39.8449
39.8419
39.839
39.836
39.8331
39.8301
39.8272
39.8242
39.8213
39.8183
39.8154
39.8124
39.8095
39.8065
39.8036
39.8006
39.7977
39.7947
39.7918
39.7889
39.7859
39.783
39.78
39.7771
39.7741
39.7712
39.7683
39.7653
39.7624
39.7594
39.7565
39.7536
39.7506
39.7477
39.7447
39.7418
39.7389
39.7359
39.733
39.7301
39.7271
39.7242
39.7213
39.7183
39.7154
39.7125
39.7095
39.7066
39.7037
39.7007
39.6978
39.6949
39.6919
39.689
39.6861
39.6831
39.6802
39.6773
39.6744
39.6714
39.6685
39.6656
39.6626
39.6597
39.6568
39.6539
39.6509
39.648
39.6451
39.6422
39.6392
39.6363
39.6334
39.6305
39.6276
39.6246
39.6217
39.6188
39.6159
39.613
39.61
39.6071
39.6042
39.6013
39.5984
39.5954
39.5925
39.5896
39.5867
39.5838
39.5809
39.578
39.575
39.5721
39.5692
39.5663
39.5634
39.5605
39.5576
39.5546
39.5517
39.5488
39.5459
39.543
39.5401
39.5372
39.5343
39.5314
39.5285
39.5256
39.5226
39.5197
39.5168
39.5139
39.511
39.5081
39.5052
39.5023
39.4994
39.4965
39.4936
39.4907
39.4878
39.4849
39.482
39.4791
39.4762
39.4733
39.4704
39.4675
39.4646
39.4617
39.4588
39.4559
39.453
39.4501
39.4472
39.4443
39.4414
39.4385
39.4356
39.4327
39.4298
39.4269
39.424
39.4211
39.4182
39.4154
39.4125
39.4096
39.4067
39.4038
39.4009
39.398
39.3951
39.3922
39.3893
39.3864
39.3836
39.3807
39.3778
39.3749
39.372
39.3691
39.3662
39.3634
39.3605
39.3576
39.3547
39.3518
39.3489
39.346
39.3432
39.3403
39.3374
39.3345
39.3316
39.3288
39.3259
39.323
39.3201
39.3172
39.3144
39.3115
39.3086
39.3057
39.3029
39.3
39.2971
39.2942
39.2913
39.2885
39.2856
39.2827
39.2798
39.277
39.2741
39.2712
39.2684
39.2655
39.2626
39.2597
39.2569
39.254
39.2511
39.2483
39.2454
39.2425
39.2397
39.2368
39.2339
39.2311
39.2282
39.2253
39.2225
39.2196
39.2167
39.2139
39.211
39.2081
39.2053
39.2024
39.1995
39.1967
39.1938
39.191
39.1881
39.1852
39.1824
39.1795
39.1767
39.1738
39.1709
39.1681
39.1652
39.1624
39.1595
39.1566
39.1538
39.1509
39.1481
39.1452
39.1424
39.1395
39.1367
39.1338
39.131
39.1281
39.1252
39.1224
39.1195
39.1167
39.1138
39.111
39.1081
39.1053
39.1024
39.0996
39.0967
39.0939
39.0911
39.0882
39.0854
39.0825
39.0797
39.0768
39.074
39.0711
39.0683
39.0654
39.0626
39.0598
39.0569
39.0541
39.0512
39.0484
39.0455
39.0427
39.0399
39.037
39.0342
39.0313
39.0285
39.0257
39.0228
39.02
39.0171
39.0143
39.0115
39.0086
39.0058
39.003
39.0001
38.9973
38.9945
38.9916
38.9888
38.986
38.9831
38.9803
38.9775
38.9746
38.9718
38.969
38.9661
38.9633
38.9605
38.9577
38.9548
38.952
38.9492
38.9463
38.9435
38.9407
38.9379
38.935
38.9322
38.9294
38.9266
38.9237
38.9209
38.9181
38.9153
38.9124
38.9096
38.9068
38.904
38.9012
38.8983
38.8955
38.8927
38.8899
38.8871
38.8842
38.8814
38.8786
38.8758
38.873
38.8701
38.8673
38.8645
38.8617
38.8589
38.8561
38.8532
38.8504
38.8476
38.8448
38.842
38.8392
38.8364
38.8336
38.8307
38.8279
38.8251
38.8223
38.8195
38.8167
38.8139
38.8111
38.8083
38.8055
38.8027
38.7998
38.797
38.7942
38.7914
38.7886
38.7858
38.783
38.7802
38.7774
38.7746
38.7718
38.769
38.7662
38.7634
38.7606
38.7578
38.755
38.7522
38.7494
38.7466
38.7438
38.741
38.7382
38.7354
38.7326
38.7298
38.727
38.7242
38.7214
38.7186
38.7158
38.713
38.7102
38.7074
38.7046
38.7018
38.699
38.6963
38.6935
38.6907
38.6879
38.6851
38.6823
38.6795
38.6767
38.6739
38.6711
38.6684
38.6656
38.6628
38.66
38.6572
38.6544
38.6516
38.6488
38.6461
38.6433
38.6405
38.6377
38.6349
38.6321
38.6293
38.6266
38.6238
38.621
38.6182
38.6154
38.6127
38.6099
38.6071
38.6043
38.6015
38.5988
38.596
38.5932
38.5904
38.5876
38.5849
38.5821
38.5793
38.5765
38.5738
38.571
38.5682
38.5654
38.5627
38.5599
38.5571
38.5543
38.5516
38.5488
38.546
38.5433
38.5405
38.5377
38.5349
38.5322
38.5294
38.5266
38.5239
38.5211
38.5183
38.5156
38.5128
38.51
38.5073
38.5045
38.5017
38.499
38.4962
38.4934
38.4907
38.4879
38.4852
38.4824
38.4796
38.4769
38.4741
38.4713
38.4686
38.4658
38.4631
38.4603
38.4575
38.4548
38.452
38.4493
38.4465
38.4438
38.441
38.4382
38.4355
38.4327
38.43
38.4272
38.4245
38.4217
38.419
38.4162
38.4135
38.4107
38.4079
38.4052
38.4024
38.3997
38.3969
38.3942
38.3914
38.3887
38.3859
38.3832
38.3804
38.3777
38.3749
38.3722
38.3695
38.3667
38.364
38.3612
38.3585
38.3557
38.353
38.3502
38.3475
38.3448
38.342
38.3393
38.3365
38.3338
38.331
38.3283
38.3256
38.3228
38.3201
38.3173
38.3146
38.3119
38.3091
38.3064
38.3036
38.3009
38.2982
38.2954
38.2927
38.29
38.2872
38.2845
38.2818
38.279
38.2763
38.2736
38.2708
38.2681
38.2654
38.2626
38.2599
38.2572
38.2544
38.2517
38.249
38.2463
38.2435
38.2408
38.2381
38.2353
38.2326
38.2299
38.2272
38.2244
38.2217
38.219
38.2163
38.2135
38.2108
38.2081
38.2054
38.2026
38.1999
38.1972
38.1945
38.1917
38.189
38.1863
38.1836
38.1809
38.1781
38.1754
38.1727
38.17
38.1673
38.1646
38.1618
38.1591
38.1564
38.1537
38.151
38.1483
38.1455
38.1428
38.1401
38.1374
38.1347
38.132
38.1293
38.1265
38.1238
38.1211
38.1184
38.1157
38.113
38.1103
38.1076
38.1049
38.1021
38.0994
38.0967
38.094
38.0913
38.0886
38.0859
38.0832
38.0805
38.0778
38.0751
38.0724
38.0697
38.067
38.0643
38.0616
38.0589
38.0562
38.0535
38.0508
38.0481
38.0453
38.0426
38.0399
38.0372
38.0346
38.0319
38.0292
38.0265
38.0238
38.0211
38.0184
38.0157
38.013
38.0103
38.0076
38.0049
38.0022
37.9995
37.9968
37.9941
37.9914
37.9887
37.986
37.9833
37.9806
37.978
37.9753
37.9726
37.9699
37.9672
37.9645
37.9618
37.9591
37.9564
37.9537
37.9511
37.9484
37.9457
37.943
37.9403
37.9376
37.9349
37.9323
37.9296
37.9269
37.9242
37.9215
37.9188
37.9162
37.9135
37.9108
37.9081
37.9054
37.9028
37.9001
37.8974
37.8947
37.892
37.8894
37.8867
37.884
37.8813
37.8786
37.876
37.8733
37.8706
37.8679
37.8653
37.8626
37.8599
37.8572
37.8546
37.8519
37.8492
37.8466
37.8439
37.8412
37.8385
37.8359
37.8332
37.8305
37.8279
37.8252
37.8225
37.8198
37.8172
37.8145
37.8118
37.8092
37.8065
37.8038
37.8012
37.7985
37.7958
37.7932
37.7905
37.7879
37.7852
37.7825
37.7799
37.7772
37.7745
37.7719
37.7692
37.7666
37.7639
37.7612
37.7586
37.7559
37.7533
37.7506
37.7479
37.7453
37.7426
37.74
37.7373
37.7346
37.732
37.7293
37.7267
37.724
37.7214
37.7187
37.7161
37.7134
37.7108
37.7081
37.7055
37.7028
37.7001
37.6975
37.6948
37.6922
37.6895
37.6869
37.6842
37.6816
37.679
37.6763
37.6737
37.671
37.6684
37.6657
37.6631
37.6604
37.6578
37.6551
37.6525
37.6498
37.6472
37.6446
37.6419
37.6393
37.6366
37.634
37.6313
37.6287
37.6261
37.6234
37.6208
37.6181
37.6155
37.6129
37.6102
37.6076
37.6049
37.6023
37.5997
37.597
37.5944
37.5918
37.5891
37.5865
37.5839
37.5812
37.5786
37.576
37.5733
37.5707
37.5681
37.5654
37.5628
37.5602
37.5575
37.5549
37.5523
37.5496
37.547
37.5444
37.5418
37.5391
37.5365
37.5339
37.5312
37.5286
37.526
37.5234
37.5207
37.5181
37.5155
37.5129
37.5102
37.5076
37.505
37.5024
37.4997
37.4971
37.4945
37.4919
37.4893
37.4866
37.484
37.4814
37.4788
37.4762
37.4735
37.4709
37.4683
37.4657
37.4631
37.4604
37.4578
37.4552
37.4526
37.45
37.4474
37.4448
37.4421
37.4395
37.4369
37.4343
37.4317
37.4291
37.4265
37.4238
37.4212
37.4186
37.416
37.4134
37.4108
37.4082
37.4056
37.403
37.4004
37.3977
37.3951
37.3925
37.3899
37.3873
37.3847
37.3821
37.3795
37.3769
37.3743
37.3717
37.3691
37.3665
37.3639
37.3613
37.3587
37.3561
37.3535
37.3509
37.3483
37.3457
37.3431
37.3405
37.3379
37.3353
37.3327
37.3301
37.3275
37.3249
37.3223
37.3197
37.3171
37.3145
37.3119
37.3093
37.3067
37.3041
37.3015
37.2989
37.2963
37.2937
37.2911
37.2886
37.286
37.2834
37.2808
37.2782
37.2756
37.273
37.2704
37.2678
37.2652
37.2627
37.2601
37.2575
37.2549
37.2523
37.2497
37.2471
37.2445
37.242
37.2394
37.2368
37.2342
37.2316
37.229
37.2265
37.2239
37.2213
37.2187
37.2161
37.2135
37.211
37.2084
37.2058
37.2032
37.2006
37.1981
37.1955
37.1929
37.1903
37.1878
37.1852
37.1826
37.18
37.1774
37.1749
37.1723
37.1697
37.1671
37.1646
37.162
37.1594
37.1568
37.1543
37.1517
37.1491
37.1466
37.144
37.1414
37.1388
37.1363
37.1337
37.1311
37.1286
37.126
37.1234
37.1209
37.1183
37.1157
37.1132
37.1106
37.108
37.1055
37.1029
37.1003
37.0978
37.0952
37.0926
37.0901
37.0875
37.085
37.0824
37.0798
37.0773
37.0747
37.0721
37.0696
37.067
37.0645
37.0619
37.0594
37.0568
37.0542
37.0517
37.0491
37.0466
37.044
37.0414
37.0389
37.0363
37.0338
37.0312
37.0287
37.0261
37.0236
37.021
37.0185
37.0159
37.0134
37.0108
37.0083
37.0057
37.0032
37.0006
36.998
36.9955
36.993
36.9904
36.9879
36.9853
36.9828
36.9802
36.9777
36.9751
36.9726
36.97
36.9675
36.9649
36.9624
36.9598
36.9573
36.9548
36.9522
36.9497
36.9471
36.9446
36.942
36.9395
36.937
36.9344
36.9319
36.9293
36.9268
36.9243
36.9217
36.9192
36.9166
36.9141
36.9116
36.909
36.9065
36.904
36.9014
36.8989
36.8964
36.8938
36.8913
36.8888
36.8862
36.8837
36.8812
36.8786
36.8761
36.8736
36.871
36.8685
36.866
36.8634
36.8609
36.8584
36.8558
36.8533
36.8508
36.8483
36.8457
36.8432
36.8407
36.8382
36.8356
36.8331
36.8306
36.8281
36.8255
36.823
36.8205
36.818
36.8154
36.8129
36.8104
36.8079
36.8053
36.8028
36.8003
36.7978
36.7953
36.7927
36.7902
36.7877
36.7852
36.7827
36.7802
36.7776
36.7751
36.7726
36.7701
36.7676
36.7651
36.7625
36.76
36.7575
36.755
36.7525
36.75
36.7475
36.7449
36.7424
36.7399
36.7374
36.7349
36.7324
36.7299
36.7274
36.7248
36.7223
36.7198
36.7173
36.7148
36.7123
36.7098
36.7073
36.7048
36.7023
36.6998
36.6973
36.6948
36.6923
36.6898
36.6872
36.6847
36.6822
36.6797
36.6772
36.6747
36.6722
36.6697
36.6672
36.6647
36.6622
36.6597
36.6572
36.6547
36.6522
36.6497
36.6472
36.6447
36.6422
36.6397
36.6372
36.6347
36.6322
36.6298
36.6273
36.6248
36.6223
36.6198
36.6173
36.6148
36.6123
36.6098
36.6073
36.6048
36.6023
36.5998
36.5973
36.5948
36.5924
36.5899
36.5874
36.5849
36.5824
36.5799
36.5774
36.5749
36.5724
36.57
36.5675
36.565
36.5625
36.56
36.5575
36.555
36.5526
36.5501
36.5476
36.5451
36.5426
36.5401
36.5377
36.5352
36.5327
36.5302
36.5277
36.5253
36.5228
36.5203
36.5178
36.5153
36.5129
36.5104
36.5079
36.5054
36.503
36.5005
36.498
36.4955
36.4931
36.4906
36.4881
36.4856
36.4832
36.4807
36.4782
36.4757
36.4733
36.4708
36.4683
36.4658
36.4634
36.4609
36.4584
36.456
36.4535
36.451
36.4486
36.4461
36.4436
36.4411
36.4387
36.4362
36.4337
36.4313
36.4288
36.4263
36.4239
36.4214
36.419
36.4165
36.414
36.4116
36.4091
36.4066
36.4042
36.4017
36.3993
36.3968
36.3943
36.3919
36.3894
36.3869
36.3845
36.382
36.3796
36.3771
36.3747
36.3722
36.3697
36.3673
36.3648
36.3624
36.3599
36.3575
36.355
36.3526
36.3501
36.3476
36.3452
36.3427
36.3403
36.3378
36.3354
36.3329
36.3305
36.328
36.3256
36.3231
36.3207
36.3182
36.3158
36.3133
36.3109
36.3084
36.306
36.3035
36.3011
36.2986
36.2962
36.2937
36.2913
36.2889
36.2864
36.284
36.2815
36.2791
36.2766
36.2742
36.2718
36.2693
36.2669
36.2644
36.262
36.2595
36.2571
36.2547
36.2522
36.2498
36.2473
36.2449
36.2425
36.24
36.2376
36.2352
36.2327
36.2303
36.2278
36.2254
36.223
36.2205
36.2181
36.2157
36.2132
36.2108
36.2084
36.2059
36.2035
36.2011
36.1986
36.1962
36.1938
36.1914
36.1889
36.1865
36.1841
36.1816
36.1792
36.1768
36.1743
36.1719
36.1695
36.1671
36.1646
36.1622
36.1598
36.1574
36.1549
36.1525
36.1501
36.1477
36.1452
36.1428
36.1404
36.138
36.1355
36.1331
36.1307
36.1283
36.1259
36.1234
36.121
36.1186
36.1162
36.1138
36.1113
36.1089
36.1065
36.1041
36.1017
36.0993
36.0968
36.0944
36.092
36.0896
36.0872
36.0848
36.0824
36.0799
36.0775
36.0751
36.0727
36.0703
36.0679
36.0655
36.0631
36.0606
36.0582
36.0558
36.0534
36.051
36.0486
36.0462
36.0438
36.0414
36.039
36.0366
36.0341
36.0317
36.0293
36.0269
36.0245
36.0221
36.0197
36.0173
36.0149
36.0125
36.0101
36.0077
36.0053
36.0029
36.0005
35.9981
35.9957
35.9933
35.9909
35.9885
35.9861
35.9837
35.9813
35.9789
35.9765
35.9741
35.9717
35.9693
35.9669
35.9645
35.9621
35.9597
35.9573
35.9549
35.9525
35.9501
35.9477
35.9453
35.9429
35.9406
35.9382
35.9358
35.9334
35.931
35.9286
35.9262
35.9238
35.9214
35.919
35.9166
35.9143
35.9119
35.9095
35.9071
35.9047
35.9023
35.8999
35.8975
35.8952
35.8928
35.8904
35.888
35.8856
35.8832
35.8809
35.8785
35.8761
35.8737
35.8713
35.8689
35.8666
35.8642
35.8618
35.8594
35.857
35.8547
35.8523
35.8499
35.8475
35.8451
35.8428
35.8404
35.838
35.8356
35.8333
35.8309
35.8285
35.8261
35.8237
35.8214
35.819
35.8166
35.8143
35.8119
35.8095
35.8071
35.8048
35.8024
35.8
35.7976
35.7953
35.7929
35.7905
35.7882
35.7858
35.7834
35.7811
35.7787
35.7763
35.774
35.7716
35.7692
35.7669
35.7645
35.7621
35.7598
35.7574
35.755
35.7527
35.7503
35.7479
35.7456
35.7432
35.7408
35.7385
35.7361
35.7338
35.7314
35.729
35.7267
35.7243
35.722
35.7196
35.7172
35.7149
35.7125
35.7102
35.7078
35.7054
35.7031
35.7007
35.6984
35.696
35.6937
35.6913
35.689
35.6866
35.6842
35.6819
35.6795
35.6772
35.6748
35.6725
35.6701
35.6678
35.6654
35.6631
35.6607
35.6584
35.656
35.6537
35.6513
35.649
35.6466
35.6443
35.6419
35.6396
35.6372
35.6349
35.6326
35.6302
35.6279
35.6255
35.6232
35.6208
35.6185
35.6161
35.6138
35.6115
35.6091
35.6068
35.6044
35.6021
35.5997
35.5974
35.5951
35.5927
35.5904
35.588
35.5857
35.5834
35.581
35.5787
35.5764
35.574
35.5717
35.5693
35.567
35.5647
35.5623
35.56
35.5577
35.5553
35.553
35.5507
35.5483
35.546
35.5437
35.5413
35.539
35.5367
35.5343
35.532
35.5297
35.5273
35.525
35.5227
35.5204
35.518
35.5157
35.5134
35.511
35.5087
35.5064
35.5041
35.5017
35.4994
35.4971
35.4948
35.4924
35.4901
35.4878
35.4855
35.4831
35.4808
35.4785
35.4762
35.4739
35.4715
35.4692
35.4669
35.4646
35.4622
35.4599
35.4576
35.4553
35.453
35.4507
35.4483
35.446
35.4437
35.4414
35.4391
35.4368
35.4344
35.4321
35.4298
35.4275
35.4252
35.4229
35.4205
35.4182
35.4159
35.4136
35.4113
35.409
35.4067
35.4044
35.4021
35.3997
35.3974
35.3951
35.3928
35.3905
35.3882
35.3859
35.3836
35.3813
35.379
35.3767
35.3744
35.372
35.3697
35.3674
35.3651
35.3628
35.3605
35.3582
35.3559
35.3536
35.3513
35.349
35.3467
35.3444
35.3421
35.3398
35.3375
35.3352
35.3329
35.3306
35.3283
35.326
35.3237
35.3214
35.3191
35.3168
35.3145
35.3122
35.3099
35.3076
35.3053
35.303
35.3007
35.2984
35.2961
35.2938
35.2916
35.2893
35.287
35.2847
35.2824
35.2801
35.2778
35.2755
35.2732
35.2709
35.2686
35.2663
35.2641
35.2618
35.2595
35.2572
35.2549
35.2526
35.2503
35.248
35.2457
35.2435
35.2412
35.2389
35.2366
35.2343
35.232
35.2298
35.2275
35.2252
35.2229
35.2206
35.2183
35.2161
35.2138
35.2115
35.2092
35.2069
35.2046
35.2024
35.2001
35.1978
35.1955
35.1933
35.191
35.1887
35.1864
35.1841
35.1819
35.1796
35.1773
35.175
35.1728
35.1705
35.1682
35.1659
35.1637
35.1614
35.1591
35.1568
35.1546
35.1523
35.15
35.1478
35.1455
35.1432
35.1409
35.1387
35.1364
35.1341
35.1319
35.1296
35.1273
35.1251
35.1228
35.1205
35.1183
35.116
35.1137
35.1115
35.1092
35.1069
35.1047
35.1024
35.1001
35.0979
35.0956
35.0933
35.0911
35.0888
35.0866
35.0843
35.082
35.0798
35.0775
35.0753
35.073
35.0707
35.0685
35.0662
35.064
35.0617
35.0594
35.0572
35.0549
35.0527
35.0504
35.0482
35.0459
35.0436
35.0414
35.0391
35.0369
35.0346
35.0324
35.0301
35.0279
35.0256
35.0234
35.0211
35.0189
35.0166
35.0144
35.0121
35.0099
35.0076
35.0054
35.0031
35.0009
34.9986
34.9964
34.9941
34.9919
34.9896
34.9874
34.9851
34.9829
34.9806
34.9784
34.9761
34.9739
34.9717
34.9694
34.9672
34.9649
34.9627
34.9604
34.9582
34.956
34.9537
34.9515
34.9492
34.947
34.9448
34.9425
34.9403
34.938
34.9358
34.9336
34.9313
34.9291
34.9268
34.9246
34.9224
34.9201
34.9179
34.9157
34.9134
34.9112
34.909
34.9067
34.9045
34.9023
34.9
34.8978
34.8956
34.8933
34.8911
34.8889
34.8866
34.8844
34.8822
34.88
34.8777
34.8755
34.8733
34.871
34.8688
34.8666
34.8644
34.8621
34.8599
34.8577
34.8554
34.8532
34.851
34.8488
34.8465
34.8443
34.8421
34.8399
34.8377
34.8354
34.8332
34.831
34.8288
34.8265
34.8243
34.8221
34.8199
34.8177
34.8154
34.8132
34.811
34.8088
34.8066
34.8043
34.8021
34.7999
34.7977
34.7955
34.7933
34.791
34.7888
34.7866
34.7844
34.7822
34.78
34.7778
34.7755
34.7733
34.7711
34.7689
34.7667
34.7645
34.7623
34.7601
34.7579
34.7556
34.7534
34.7512
34.749
34.7468
34.7446
34.7424
34.7402
34.738
34.7358
34.7336
34.7314
34.7291
34.7269
34.7247
34.7225
34.7203
34.7181
34.7159
34.7137
34.7115
34.7093
34.7071
34.7049
34.7027
34.7005
34.6983
34.6961
34.6939
34.6917
34.6895
34.6873
34.6851
34.6829
34.6807
34.6785
34.6763
34.6741
34.6719
34.6697
34.6675
34.6653
34.6631
34.6609
34.6587
34.6565
34.6543
34.6522
34.65
34.6478
34.6456
34.6434
34.6412
34.639
34.6368
34.6346
34.6324
34.6302
34.628
34.6259
34.6237
34.6215
34.6193
34.6171
34.6149
34.6127
34.6105
34.6083
34.6062
34.604
34.6018
34.5996
34.5974
34.5952
34.593
34.5909
34.5887
34.5865
34.5843
34.5821
34.5799
34.5778
34.5756
34.5734
34.5712
34.569
34.5669
34.5647
34.5625
34.5603
34.5581
34.556
34.5538
34.5516
34.5494
34.5473
34.5451
34.5429
34.5407
34.5385
34.5364
34.5342
34.532
34.5298
34.5277
34.5255
34.5233
34.5212
34.519
34.5168
34.5146
34.5125
34.5103
34.5081
34.506
34.5038
34.5016
34.4994
34.4973
34.4951
34.4929
34.4908
34.4886
34.4864
34.4843
34.4821
34.4799
34.4778
34.4756
34.4734
34.4713
34.4691
34.4669
34.4648
34.4626
34.4604
34.4583
34.4561
34.454
34.4518
34.4496
34.4475
34.4453
34.4432
34.441
34.4388
34.4367
34.4345
34.4324
34.4302
34.428
34.4259
34.4237
34.4216
34.4194
34.4173
34.4151
34.4129
34.4108
34.4086
34.4065
34.4043
34.4022
34.4
34.3979
34.3957
34.3936
34.3914
34.3892
34.3871
34.3849
34.3828
34.3806
34.3785
34.3763
34.3742
34.372
34.3699
34.3677
34.3656
34.3634
34.3613
34.3592
34.357
34.3549
34.3527
34.3506
34.3484
34.3463
34.3441
34.342
34.3398
34.3377
34.3356
34.3334
34.3313
34.3291
34.327
34.3248
34.3227
34.3206
34.3184
34.3163
34.3141
34.312
34.3099
34.3077
34.3056
34.3034
34.3013
34.2992
34.297
34.2949
34.2928
34.2906
34.2885
34.2864
34.2842
34.2821
34.2799
34.2778
34.2757
34.2735
34.2714
34.2693
34.2671
34.265
34.2629
34.2607
34.2586
34.2565
34.2544
34.2522
34.2501
34.248
34.2458
34.2437
34.2416
34.2395
34.2373
34.2352
34.2331
34.2309
34.2288
34.2267
34.2246
34.2224
34.2203
34.2182
34.2161
34.2139
34.2118
34.2097
34.2076
34.2055
34.2033
34.2012
34.1991
34.197
34.1948
34.1927
34.1906
34.1885
34.1864
34.1842
34.1821
34.18
34.1779
34.1758
34.1737
34.1715
34.1694
34.1673
34.1652
34.1631
34.161
34.1588
34.1567
34.1546
34.1525
34.1504
34.1483
34.1462
34.144
34.1419
34.1398
34.1377
34.1356
34.1335
34.1314
34.1293
34.1272
34.125
34.1229
34.1208
34.1187
34.1166
34.1145
34.1124
34.1103
34.1082
34.1061
34.104
34.1019
34.0998
34.0977
34.0955
34.0934
34.0913
34.0892
34.0871
34.085