# vtk DataFile Version 2.0
vtk output
ASCII
DATASET STRUCTURED_GRID
DIMENSIONS 50 10 30
POINTS 15000 float
0 0 0
1 0 0
2 0 0
3 0 0
4 0 0
5 0 0
6 0 0
7 0 0
8 0 0
9 0 0
10 0 0
11 0 0
12 0 0
13 0 0
14 0 0
15 0 0
16 0 0
17 0 0
18 0 0
19 0 0
20 0 0
21 0 0
22 0 0
23 0 0
24 0 0
25 0 0
26 0 0
27 0 0
28 0 0
29 0 0
30 0 0
31 0 0
32 0 0
33 0 0
34 0 0
35 0 0
36 0 0
37 0 0
38 0 0
39 0 0
40 0 0
41 0 0
42 0 0
43 0 0
44 0 0
45 0 0
46 0 0
47 0 0
48 0 0
49 0 0
0 1 0
1 1 0
2 1 0
3 1 0
4 1 0
5 1 0
6 1 0
7 1 0
8 1 0
9 1 0
10 1 0
11 1 0
12 1 0
13 1 0
14 1 0
15 1 0
16 1 0
17 1 0
18 1 0
19 1 0
20 1 0
21 1 0
22 1 0
23 1 0
24 1 0
25 1 0
26 1 0
27 1 0
28 1 0
29 1 0
30 1 0
31 1 0
32 1 0
33 1 0
34 1 0
35 1 0
36 1 0
37 1 0
38 1 0
39 1 0
40 1 0
41 1 0
42 1 0
43 1 0
44 1 0
45 1 0
46 1 0
47 1 0
48 1 0
49 1 0
0 2 0
1 2 0
2 2 0
3 2 0
4 2 0
5 2 0
6 2 0
7 2 0
8 2 0
9 2 0
10 2 0
11 2 0
12 2 0
13 2 0
14 2 0
15 2 0
16 2 0
17 2 0
18 2 0
19 2 0
20 2 0
21 2 0
22 2 0
23 2 0
24 2 0
25 2 0
26 2 0
27 2 0
28 2 0
29 2 0
30 2 0
31 2 0
32 2 0
33 2 0
34 2 0
35 2 0
36 2 0
37 2 0
38 2 0
39 2 0
40 2 0
41 2 0
42 2 0
43 2 0
44 2 0
45 2 0
46 2 0
47 2 0
48 2 0
49 2 0
0 3 0
1 3 0
2 3 0
3 3 0
4 3 0
5 3 0
6 3 0
7 3 0
8 3 0
9 3 0
10 3 0
11 3 0
12 3 0
13 3 0
14 3 0
15 3 0
16 3 0
17 3 0
18 3 0
19 3 0
20 3 0
21 3 0
22 3 0
23 3 0
24 3 0
25 3 0
26 3 0
27 3 0
28 3 0
29 3 0
30 3 0
31 3 0
32 3 0
33 3 0
34 3 0
35 3 0
36 3 0
37 3 0
38 3 0
39 3 0
40 3 0
41 3 0
42 3 0
43 3 0
44 3 0
45 3 0
46 3 0
47 3 0
48 3 0
49 3 0
0 4 0
1 4 0
2 4 0
3 4 0
4 4 0
5 4 0
6 4 0
7 4 0
8 4 0
9 4 0
10 4 0
11 4 0
12 4 0
13 4 0
14 4 0
15 4 0
16 4 0
17 4 0
18 4 0
19 4 0
20 4 0
21 4 0
22 4 0
23 4 0
24 4 0
25 4 0
26 4 0
27 4 0
28 4 0
29 4 0
30 4 0
31 4 0
32 4 0
33 4 0
34 4 0
35 4 0
36 4 0
37 4 0
38 4 0
39 4 0
40 4 0
41 4 0
42 4 0
43 4 0
44 4 0
45 4 0
46 4 0
47 4 0
48 4 0
49 4 0
0 5 0
1 5 0
2 5 0
3 5 0
4 5 0
5 5 0
6 5 0
7 5 0
8 5 0
9 5 0
10 5 0
11 5 0
12 5 0
13 5 0
14 5 0
15 5 0
16 5 0
17 5 0
18 5 0
19 5 0
20 5 0
21 5 0
22 5 0
23 5 0
24 5 0
25 5 0
26 5 0
27 5 0
28 5 0
29 5 0
30 5 0
31 5 0
32 5 0
33 5 0
34 5 0
35 5 0
36 5 0
37 5 0
38 5 0
39 5 0
40 5 0
41 5 0
42 5 0
43 5 0
44 5 0
45 5 0
46 5 0
47 5 0
48 5 0
49 5 0
0 6 0
1 6 0
2 6 0
3 6 0
4 6 0
5 6 0
6 6 0
7 6 0
8 6 0
9 6 0
10 6 0
11 6 0
12 6 0
13 6 0
14 6 0
15 6 0
16 6 0
17 6 0
18 6 0
19 6 0
20 6 0
21 6 0
22 6 0
23 6 0
24 6 0
25 6 0
26 6 0
27 6 0
28 6 0
29 6 0
30 6 0
31 6 0
32 6 0
33 6 0
34 6 0
35 6 0
36 6 0
37 6 0
38 6 0
39 6 0
40 6 0
41 6 0
42 6 0
43 6 0
44 6 0
45 6 0
46 6 0
47 6 0
48 6 0
49 6 0
0 7 0
1 7 0
2 7 0
3 7 0
4 7 0
5 7 0
6 7 0
7 7 0
8 7 0
9 7 0
10 7 0
11 7 0
12 7 0
13 7 0
14 7 0
15 7 0
16 7 0
17 7 0
18 7 0
19 7 0
20 7 0
21 7 0
22 7 0
23 7 0
24 7 0
25 7 0
26 7 0
27 7 0
28 7 0
29 7 0
30 7 0
31 7 0
32 7 0
33 7 0
34 7 0
35 7 0
36 7 0
37 7 0
38 7 0
39 7 0
40 7 0
41 7 0
42 7 0
43 7 0
44 7 0
45 7 0
46 7 0
47 7 0
48 7 0
49 7 0
0 8 0
1 8 0
2 8 0
3 8 0
4 8 0
5 8 0
6 8 0
7 8 0
8 8 0
9 8 0
10 8 0
11 8 0
12 8 0
13 8 0
14 8 0
15 8 0
16 8 0
17 8 0
18 8 0
19 8 0
20 8 0
21 8 0
22 8 0
23 8 0
24 8 0
25 8 0
26 8 0
27 8 0
28 8 0
29 8 0
30 8 0
31 8 0
32 8 0
33 8 0
34 8 0
35 8 0
36 8 0
37 8 0
38 8 0
39 8 0
40 8 0
41 8 0
42 8 0
43 8 0
44 8 0
45 8 0
46 8 0
47 8 0
48 8 0
49 8 0
0 9 0
1 9 0
2 9 0
3 9 0
4 9 0
5 9 0
6 9 0
7 9 0
8 9 0
9 9 0
10 9 0
11 9 0
12 9 0
13 9 0
14 9 0
15 9 0
16 9 0
17 9 0
18 9 0
19 9 0
20 9 0
21 9 0
22 9 0
23 9 0
24 9 0
25 9 0
26 9 0
27 9 0
28 9 0
29 9 0
30 9 0
31 9 0
32 9 0
33 9 0
34 9 0
35 9 0
36 9 0
37 9 0
38 9 0
39 9 0
40 9 0
41 9 0
42 9 0
43 9 0
44 9 0
45 9 0
46 9 0
47 9 0
48 9 0
49 9 0
0 0 1
1 0 1
2 0 1
3 0 1
4 0 1
5 0 1
6 0 1
7 0 1
8 0 1
9 0 1
10 0 1
11 0 1
12 0 1
13 0 1
14 0 1
15 0 1
16 0 1
17 0 1
18 0 1
19 0 1
20 0 1
21 0 1
22 0 1
23 0 1
24 0 1
25 0 1
26 0 1
27 0 1
28 0 1
29 0 1
30 0 1
31 0 1
32 0 1
33 0 1
34 0 1
35 0 1
36 0 1
37 0 1
38 0 1
39 0 1
40 0 1
41 0 1
42 0 1
43 0 1
44 0 1
45 0 1
46 0 1
47 0 1
48 0 1
49 0 1
0 1 1
1 1 1
2 1 1
3 1 1
4 1 1
5 1 1
6 1 1
7 1 1
8 1 1
9 1 1
10 1 1
11 1 1
12 1 1
13 1 1
14 1 1
15 1 1
16 1 1
17 1 1
18 1 1
19 1 1
20 1 1
21 1 1
22 1 1
23 1 1
24 1 1
25 1 1
26 1 1
27 1 1
28 1 1
29 1 1
30 1 1
31 1 1
32 1 1
33 1 1
34 1 1
35 1 1
36 1 1
37 1 1
38 1 1
39 1 1
40 1 1
41 1 1
42 1 1
43 1 1
44 1 1
45 1 1
46 1 1
47 1 1
48 1 1
49 1 1
0 2 1
1 2 1
2 2 1
3 2 1
4 2 1
5 2 1
6 2 1
7 2 1
8 2 1
9 2 1
10 2 1
11 2 1
12 2 1
13 2 1
14 2 1
15 2 1
16 2 1
17 2 1
18 2 1
19 2 1
20 2 1
21 2 1
22 2 1
23 2 1
24 2 1
25 2 1
26 2 1
27 2 1
28 2 1
29 2 1
30 2 1
31 2 1
32 2 1
33 2 1
34 2 1
35 2 1
36 2 1
37 2 1
38 2 1
39 2 1
40 2 1
41 2 1
42 2 1
43 2 1
44 2 1
45 2 1
46 2 1
47 2 1
48 2 1
49 2 1
0 3 1
1 3 1
2 3 1
3 3 1
4 3 1
5 3 1
6 3 1
7 3 1
8 3 1
9 3 1
10 3 1
11 3 1
12 3 1
13 3 1
14 3 1
15 3 1
16 3 1
17 3 1
18 3 1
19 3 1
20 3 1
21 3 1
22 3 1
23 3 1
24 3 1
25 3 1
26 3 1
27 3 1
28 3 1
29 3 1
30 3 1
31 3 1
32 3 1
33 3 1
34 3 1
35 3 1
36 3 1
37 3 1
38 3 1
39 3 1
40 3 1
41 3 1
42 3 1
43 3 1
44 3 1
45 3 1
46 3 1
47 3 1
48 3 1
49 3 1
0 4 1
1 4 1
2 4 1
3 4 1
4 4 1
5 4 1
6 4 1
7 4 1
8 4 1
9 4 1
10 4 1
11 4 1
12 4 1
13 4 1
14 4 1
15 4 1
16 4 1
17 4 1
18 4 1
19 4 1
20 4 1
21 4 1
22 4 1
23 4 1
24 4 1
25 4 1
26 4 1
27 4 1
28 4 1
29 4 1
30 4 1
31 4 1
32 4 1
33 4 1
34 4 1
35 4 1
36 4 1
37 4 1
38 4 1
39 4 1
40 4 1
41 4 1
42 4 1
43 4 1
44 4 1
45 4 1
46 4 1
47 4 1
48 4 1
49 4 1
0 5 1
1 5 1
2 5 1
3 5 1
4 5 1
5 5 1
6 5 1
7 5 1
8 5 1
9 5 1
10 5 1
11 5 1
12 5 1
13 5 1
14 5 1
15 5 1
16 5 1
17 5 1
18 5 1
19 5 1
20 5 1
21 5 1
22 5 1
23 5 1
24 5 1
25 5 1
26 5 1
27 5 1
28 5 1
29 5 1
30 5 1
31 5 1
32 5 1
33 5 1
34 5 1
35 5 1
36 5 1
37 5 1
38 5 1
39 5 1
40 5 1
41 5 1
42 5 1
43 5 1
44 5 1
45 5 1
46 5 1
47 5 1
48 5 1
49 5 1
0 6 1
1 6 1
2 6 1
3 6 1
4 6 1
5 6 1
6 6 1
7 6 1
8 6 1
9 6 1
10 6 1
11 6 1
12 6 1
13 6 1
14 6 1
15 6 1
16 6 1
17 6 1
18 6 1
19 6 1
20 6 1
21 6 1
22 6 1
23 6 1
24 6 1
25 6 1
26 6 1
27 6 1
28 6 1
29 6 1
30 6 1
31 6 1
32 6 1
33 6 1
34 6 1
35 6 1
36 6 1
37 6 1
38 6 1
39 6 1
40 6 1
41 6 1
42 6 1
43 6 1
44 6 1
45 6 1
46 6 1
47 6 1
48 6 1
49 6 1
0 7 1
1 7 1
2 7 1
3 7 1
4 7 1
5 7 1
6 7 1
7 7 1
8 7 1
9 7 1
10 7 1
11 7 1
12 7 1
13 7 1
14 7 1
15 7 1
16 7 1
17 7 1
18 7 1
19 7 1
20 7 1
21 7 1
22 7 1
23 7 1
24 7 1
25 7 1
26 7 1
27 7 1
28 7 1
29 7 1
30 7 1
31 7 1
32 7 1
33 7 1
34 7 1
35 7 1
36 7 1
37 7 1
38 7 1
39 7 1
40 7 1
41 7 1
42 7 1
43 7 1
44 7 1
45 7 1
46 7 1
47 7 1
48 7 1
49 7 1
0 8 1
1 8 1
2 8 1
3 8 1
4 8 1
5 8 1
6 8 1
7 8 1
8 8 1
9 8 1
10 8 1
11 8 1
12 8 1
13 8 1
14 8 1
15 8 1
16 8 1
17 8 1
18 8 1
19 8 1
20 8 1
21 8 1
22 8 1
23 8 1
24 8 1
25 8 1
26 8 1
27 8 1
28 8 1
29 8 1
30 8 1
31 8 1
32 8 1
33 8 1
34 8 1
35 8 1
36 8 1
37 8 1
38 8 1
39 8 1
40 8 1
41 8 1
42 8 1
43 8 1
44 8 1
45 8 1
46 8 1
47 8 1
48 8 1
49 8 1
0 9 1
1 9 1
2 9 1
3 9 1
4 9 1
5 9 1
6 9 1
7 9 1
8 9 1
9 9 1
10 9 1
11 9 1
12 9 1
13 9 1
14 9 1
15 9 1
16 9 1
17 9 1
18 9 1
19 9 1
20 9 1
21 9 1
22 9 1
23 9 1
24 9 1
25 9 1
26 9 1
27 9 1
28 9 1
29 9 1
30 9 1
31 9 1
32 9 1
33 9 1
34 9 1
35 9 1
36 9 1
37 9 1
38 9 1
39 9 1
40 9 1
41 9 1
42 9 1
43 9 1
44 9 1
45 9 1
46 9 1
47 9 1
48 9 1
49 9 1
0 0 2
1 0 2
2 0 2
3 0 2
4 0 2
5 0 2
6 0 2
7 0 2
8 0 2
9 0 2
10 0 2
11 0 2
12 0 2
13 0 2
14 0 2
15 0 2
16 0 2
17 0 2
18 0 2
19 0 2
20 0 2
21 0 2
22 0 2
23 0 2
24 0 2
25 0 2
26 0 2
27 0 2
28 0 2
29 0 2
30 0 2
31 0 2
32 0 2
33 0 2
34 0 2
35 0 2
36 0 2
37 0 2
38 0 2
39 0 2
40 0 2
41 0 2
42 0 2
43 0 2
44 0 2
45 0 2
46 0 2
47 0 2
48 0 2
49 0 2
0 1 2
1 1 2
2 1 2
3 1 2
4 1 2
5 1 2
6 1 2
7 1 2
8 1 2
9 1 2
10 1 2
11 1 2
12 1 2
13 1 2
14 1 2
15 1 2
16 1 2
17 1 2
18 1 2
19 1 2
20 1 2
21 1 2
22 1 2
23 1 2
24 1 2
25 1 2
26 1 2
27 1 2
28 1 2
29 1 2
30 1 2
31 1 2
32 1 2
33 1 2
34 1 2
35 1 2
36 1 2
37 1 2
38 1 2
39 1 2
40 1 2
41 1 2
42 1 2
43 1 2
44 1 2
45 1 2
46 1 2
47 1 2
48 1 2
49 1 2
0 2 2
1 2 2
2 2 2
3 2 2
4 2 2
5 2 2
6 2 2
7 2 2
8 2 2
9 2 2
10 2 2
11 2 2
12 2 2
13 2 2
14 2 2
15 2 2
16 2 2
17 2 2
18 2 2
19 2 2
20 2 2
21 2 2
22 2 2
23 2 2
24 2 2
25 2 2
26 2 2
27 2 2
28 2 2
29 2 2
30 2 2
31 2 2
32 2 2
33 2 2
34 2 2
35 2 2
36 2 2
37 2 2
38 2 2
39 2 2
40 2 2
41 2 2
42 2 2
43 2 2
44 2 2
45 2 2
46 2 2
47 2 2
48 2 2
49 2 2
0 3 2
1 3 2
2 3 2
3 3 2
4 3 2
5 3 2
6 3 2
7 3 2
8 3 2
9 3 2
10 3 2
11 3 2
12 3 2
13 3 2
14 3 2
15 3 2
16 3 2
17 3 2
18 3 2
19 3 2
20 3 2
21 3 2
22 3 2
23 3 2
24 3 2
25 3 2
26 3 2
27 3 2
28 3 2
29 3 2
30 3 2
31 3 2
32 3 2
33 3 2
34 3 2
35 3 2
36 3 2
37 3 2
38 3 2
39 3 2
40 3 2
41 3 2
42 3 2
43 3 2
44 3 2
45 3 2
46 3 2
47 3 2
48 3 2
49 3 2
0 4 2
1 4 2
2 4 2
3 4 2
4 4 2
5 4 2
6 4 2
7 4 2
8 4 2
9 4 2
10 4 2
11 4 2
12 4 2
13 4 2
14 4 2
15 4 2
16 4 2
17 4 2
18 4 2
19 4 2
20 4 2
21 4 2
22 4 2
23 4 2
24 4 2
25 4 2
26 4 2
27 4 2
28 4 2
29 4 2
30 4 2
31 4 2
32 4 2
33 4 2
34 4 2
35 4 2
36 4 2
37 4 2
38 4 2
39 4 2
40 4 2
41 4 2
42 4 2
43 4 2
44 4 2
45 4 2
46 4 2
47 4 2
48 4 2
49 4 2
0 5 2
1 5 2
2 5 2
3 5 2
4 5 2
5 5 2
6 5 2
7 5 2
8 5 2
9 5 2
10 5 2
11 5 2
12 5 2
13 5 2
14 5 2
15 5 2
16 5 2
17 5 2
18 5 2
19 5 2
20 5 2
21 5 2
22 5 2
23 5 2
24 5 2
25 5 2
26 5 2
27 5 2
28 5 2
29 5 2
30 5 2
31 5 2
32 5 2
33 5 2
34 5 2
35 5 2
36 5 2
37 5 2
38 5 2
39 5 2
40 5 2
41 5 2
42 5 2
43 5 2
44 5 2
45 5 2
46 5 2
47 5 2
48 5 2
49 5 2
0 6 2
1 6 2
2 6 2
3 6 2
4 6 2
5 6 2
6 6 2
7 6 2
8 6 2
9 6 2
10 6 2
11 6 2
12 6 2
13 6 2
14 6 2
15 6 2
16 6 2
17 6 2
18 6 2
19 6 2
20 6 2
21 6 2
22 6 2
23 6 2
24 6 2
25 6 2
26 6 2
27 6 2
28 6 2
29 6 2
30 6 2
31 6 2
32 6 2
33 6 2
34 6 2
35 6 2
36 6 2
37 6 2
38 6 2
39 6 2
40 6 2
41 6 2
42 6 2
43 6 2
44 6 2
45 6 2
46 6 2
47 6 2
48 6 2
49 6 2
0 7 2
1 7 2
2 7 2
3 7 2
4 7 2
5 7 2
6 7 2
7 7 2
8 7 2
9 7 2
10 7 2
11 7 2
12 7 2
13 7 2
14 7 2
15 7 2
16 7 2
17 7 2
18 7 2
19 7 2
20 7 2
21 7 2
22 7 2
23 7 2
24 7 2
25 7 2
26 7 2
27 7 2
28 7 2
29 7 2
30 7 2
31 7 2
32 7 2
33 7 2
34 7 2
35 7 2
36 7 2
37 7 2
38 7 2
39 7 2
40 7 2
41 7 2
42 7 2
43 7 2
44 7 2
45 7 2
46 7 2
47 7 2
48 7 2
49 7 2
0 8 2
1 8 2
2 8 2
3 8 2
4 8 2
5 8 2
6 8 2
7 8 2
8 8 2
9 8 2
10 8 2
11 8 2
12 8 2
13 8 2
14 8 2
15 8 2
16 8 2
17 8 2
18 8 2
19 8 2
20 8 2
21 8 2
22 8 2
23 8 2
24 8 2
25 8 2
26 8 2
27 8 2
28 8 2
29 8 2
30 8 2
31 8 2
32 8 2
33 8 2
34 8 2
35 8 2
36 8 2
37 8 2
38 8 2
39 8 2
40 8 2
41 8 2
42 8 2
43 8 2
44 8 2
45 8 2
46 8 2
47 8 2
48 8 2
49 8 2
0 9 2
1 9 2
2 9 2
3 9 2
4 9 2
[...]
POINT_DATA 15000
SCALARS sol108 float
LOOKUP_TABLE default
55.4757
55.4726
55.4696
55.4665
55.4635
55.4604
55.4574
55.4543
55.4513
55.4483
55.4452
55.4422
55.4391
55.4361
55.433
55.43
55.4269
55.4239
55.4209
55.4178
55.4148
55.4117
55.4087
55.4057
55.4026
55.3996
55.3965
55.3935
55.3905
55.3874
55.3844
55.3814
55.3783
55.3753
55.3722
55.3692
55.3662
55.3631
55.3601
55.3571
55.354
55.351
55.348
55.3449
55.3419
55.3389
55.3359
55.3328
55.3298
55.3268
55.3237
55.3207
55.3177
55.3146
55.3116
55.3086
55.3056
55.3025
55.2995
55.2965
55.2935
55.2904
55.2874
55.2844
55.2814
55.2783
55.2753
55.2723
55.2693
55.2663
55.2632
55.2602
55.2572
55.2542
55.2512
55.2481
55.2451
55.2421
55.2391
55.2361
55.2331
55.23
55.227
55.224
55.221
55.218
55.215
55.2119
55.2089
55.2059
55.2029
55.1999
55.1969
55.1939
55.1909
55.1878
55.1848
55.1818
55.1788
55.1758
55.1728
55.1698
55.1668
55.1638
55.1608
55.1578
55.1548
55.1517
55.1487
55.1457
55.1427
55.1397
55.1367
55.1337
55.1307
55.1277
55.1247
55.1217
55.1187
55.1157
55.1127
55.1097
55.1067
55.1037
55.1007
55.0977
55.0947
55.0917
55.0887
55.0857
55.0827
55.0797
55.0767
55.0737
55.0707
55.0677
55.0647
55.0618
55.0588
55.0558
55.0528
55.0498
55.0468
55.0438
55.0408
55.0378
55.0348
55.0318
55.0288
55.0259
55.0229
55.0199
55.0169
55.0139
55.0109
55.0079
55.0049
55.002
54.999
54.996
54.993
54.99
54.987
54.9841
54.9811
54.9781
54.9751
54.9721
54.9691
54.9662
54.9632
54.9602
54.9572
54.9542
54.9513
54.9483
54.9453
54.9423
54.9393
54.9364
54.9334
54.9304
54.9274
54.9245
54.9215
54.9185
54.9155
54.9126
54.9096
54.9066
54.9036
54.9007
54.8977
54.8947
54.8918
54.8888
54.8858
54.8828
54.8799
54.8769
54.8739
54.871
54.868
54.865
54.8621
54.8591
54.8561
54.8532
54.8502
54.8472
54.8443
54.8413
54.8383
54.8354
54.8324
54.8295
54.8265
54.8235
54.8206
54.8176
54.8146
54.8117
54.8087
54.8058
54.8028
54.7998
54.7969
54.7939
54.791
54.788
54.7851
54.7821
54.7791
54.7762
54.7732
54.7703
54.7673
54.7644
54.7614
54.7585
54.7555
54.7526
54.7496
54.7467
54.7437
54.7408
54.7378
54.7349
54.7319
54.729
54.726
54.7231
54.7201
54.7172
54.7142
54.7113
54.7083
54.7054
54.7024
54.6995
54.6965
54.6936
54.6907
54.6877
54.6848
54.6818
54.6789
54.6759
54.673
54.6701
54.6671
54.6642
54.6612
54.6583
54.6554
54.6524
54.6495
54.6465
54.6436
54.6407
54.6377
54.6348
54.6319
54.6289
54.626
54.623
54.6201
54.6172
54.6142
54.6113
54.6084
54.6054
54.6025
54.5996
54.5967
54.5937
54.5908
54.5879
54.5849
54.582
54.5791
54.5761
54.5732
54.5703
54.5674
54.5644
54.5615
54.5586
54.5557
54.5527
54.5498
54.5469
54.544
54.541
54.5381
54.5352
54.5323
54.5293
54.5264
54.5235
54.5206
54.5177
54.5147
54.5118
54.5089
54.506
54.5031
54.5001
54.4972
54.4943
54.4914
54.4885
54.4855
54.4826
54.4797
54.4768
54.4739
54.471
54.4681
54.4651
54.4622
54.4593
54.4564
54.4535
54.4506
54.4477
54.4448
54.4419
54.4389
54.436
54.4331
54.4302
54.4273
54.4244
54.4215
54.4186
54.4157
54.4128
54.4099
54.407
54.4041
54.4011
54.3982
54.3953
54.3924
54.3895
54.3866
54.3837
54.3808
54.3779
54.375
54.3721
54.3692
54.3663
54.3634
54.3605
54.3576
54.3547
54.3518
54.3489
54.346
54.3431
54.3402
54.3373
54.3344
54.3315
54.3286
54.3258
54.3229
54.32
54.3171
54.3142
54.3113
54.3084
54.3055
54.3026
54.2997
54.2968
54.2939
54.291
54.2882
54.2853
54.2824
54.2795
54.2766
54.2737
54.2708
54.2679
54.2651
54.2622
54.2593
54.2564
54.2535
54.2506
54.2477
54.2449
54.242
54.2391
54.2362
54.2333
54.2304
54.2276
54.2247
54.2218
54.2189
54.216
54.2132
54.2103
54.2074
54.2045
54.2017
54.1988
54.1959
54.193
54.1901
54.1873
54.1844
54.1815
54.1786
54.1758
54.1729
54.17
54.1671
54.1643
54.1614
54.1585
54.1557
54.1528
54.1499
54.147
54.1442
54.1413
54.1384
54.1356
54.1327
54.1298
54.127
54.1241
54.1212
54.1184
54.1155
54.1126
54.1098
54.1069
54.104
54.1012
54.0983
54.0954
54.0926
54.0897
54.0869
54.084
54.0811
54.0783
54.0754
54.0726
54.0697
54.0668
54.064
54.0611
54.0583
54.0554
54.0525
54.0497
54.0468
54.044
54.0411
54.0383
54.0354
54.0325
54.0297
54.0268
54.024
54.0211
54.0183
54.0154
54.0126
54.0097
54.0069
54.004
54.0012
53.9983
53.9955
53.9926
53.9898
53.9869
53.9841
53.9812
53.9784
53.9755
53.9727
53.9698
53.967
53.9642
53.9613
53.9585
53.9556
53.9528
53.9499
53.9471
53.9442
53.9414
53.9386
53.9357
53.9329
53.93
53.9272
53.9244
53.9215
53.9187
53.9158
53.913
53.9102
53.9073
53.9045
53.9016
53.8988
53.896
53.8931
53.8903
53.8875
53.8846
53.8818
53.879
53.8761
53.8733
53.8705
53.8676
53.8648
53.862
53.8591
53.8563
53.8535
53.8507
53.8478
53.845
53.8422
53.8393
53.8365
53.8337
53.8309
53.828
53.8252
53.8224
53.8195
53.8167
53.8139
53.8111
53.8083
53.8054
53.8026
53.7998
53.797
53.7941
53.7913
53.7885
53.7857
53.7829
53.78
53.7772
53.7744
53.7716
53.7688
53.7659
53.7631
53.7603
53.7575
53.7547
53.7518
53.749
53.7462
53.7434
53.7406
53.7378
53.735
53.7321
53.7293
53.7265
53.7237
53.7209
53.7181
53.7153
53.7125
53.7097
53.7068
53.704
53.7012
53.6984
53.6956
53.6928
53.69
53.6872
53.6844
53.6816
53.6788
53.676
53.6731
53.6703
53.6675
53.6647
53.6619
53.6591
53.6563
53.6535
53.6507
53.6479
53.6451
53.6423
53.6395
53.6367
53.6339
53.6311
53.6283
53.6255
53.6227
53.6199
53.6171
53.6143
53.6115
53.6087
53.6059
53.6031
53.6003
53.5975
53.5948
53.592
53.5892
53.5864
53.5836
53.5808
53.578
53.5752
53.5724
53.5696
53.5668
53.564
53.5612
53.5585
53.5557
53.5529
53.5501
53.5473
53.5445
53.5417
53.5389
53.5362
53.5334
53.5306
53.5278
53.525
53.5222
53.5194
53.5167
53.5139
53.5111
53.5083
53.5055
53.5027
53.5
53.4972
53.4944
53.4916
53.4888
53.4861
53.4833
53.4805
53.4777
53.4749
53.4722
53.4694
53.4666
53.4638
53.4611
53.4583
53.4555
53.4527
53.45
53.4472
53.4444
53.4416
53.4389
53.4361
53.4333
53.4305
53.4278
53.425
53.4222
53.4195
53.4167
53.4139
53.4112
53.4084
53.4056
53.4028
53.4001
53.3973
53.3945
53.3918
53.389
53.3862
53.3835
53.3807
53.3779
53.3752
53.3724
53.3697
53.3669
53.3641
53.3614
53.3586
53.3558
53.3531
53.3503
53.3476
53.3448
53.342
53.3393
53.3365
53.3338
53.331
53.3282
53.3255
53.3227
53.32
53.3172
53.3145
53.3117
53.309
53.3062
53.3034
53.3007
53.2979
53.2952
53.2924
53.2897
53.2869
53.2842
53.2814
53.2787
53.2759
53.2732
53.2704
53.2677
53.2649
53.2622
53.2594
53.2567
53.2539
53.2512
53.2484
53.2457
53.2429
53.2402
53.2375
53.2347
53.232
53.2292
53.2265
53.2237
53.221
53.2182
53.2155
53.2128
53.21
53.2073
53.2045
53.2018
53.1991
53.1963
53.1936
53.1908
53.1881
53.1854
53.1826
53.1799
53.1772
53.1744
53.1717
53.1689
53.1662
53.1635
53.1607
53.158
53.1553
53.1525
53.1498
53.1471
53.1443
53.1416
53.1389
53.1361
53.1334
53.1307
53.128
53.1252
53.1225
53.1198
53.117
53.1143
53.1116
53.1089
53.1061
53.1034
53.1007
53.098
53.0952
53.0925
53.0898
53.0871
53.0843
53.0816
53.0789
53.0762
53.0734
53.0707
53.068
53.0653
53.0626
53.0598
53.0571
53.0544
53.0517
53.049
53.0462
53.0435
53.0408
53.0381
53.0354
53.0326
53.0299
53.0272
53.0245
53.0218
53.0191
53.0164
53.0136
53.0109
53.0082
53.0055
53.0028
53.0001
52.9974
52.9947
52.9919
52.9892
52.9865
52.9838
52.9811
52.9784
52.9757
52.973
52.9703
52.9676
52.9649
52.9621
52.9594
52.9567
52.954
52.9513
52.9486
52.9459
52.9432
52.9405
52.9378
52.9351
52.9324
52.9297
52.927
52.9243
52.9216
52.9189
52.9162
52.9135
52.9108
52.9081
52.9054
52.9027
52.9
52.8973
52.8946
52.8919
52.8892
52.8865
52.8838
52.8811
52.8784
52.8757
52.873
52.8703
52.8676
52.865
52.8623
52.8596
52.8569
52.8542
52.8515
52.8488
52.8461
52.8434
52.8407
52.838
52.8353
52.8327
52.83
52.8273
52.8246
52.8219
52.8192
52.8165
52.8139
52.8112
52.8085
52.8058
52.8031
52.8004
52.7977
52.7951
52.7924
52.7897
52.787
52.7843
52.7816
52.779
52.7763
52.7736
52.7709
52.7682
52.7656
52.7629
52.7602
52.7575
52.7549
52.7522
52.7495
52.7468
52.7441
52.7415
52.7388
52.7361
52.7334
52.7308
52.7281
52.7254
52.7227
52.7201
52.7174
52.7147
52.7121
52.7094
52.7067
52.704
52.7014
52.6987
52.696
52.6934
52.6907
52.688
52.6854
52.6827
52.68
52.6774
52.6747
52.672
52.6694
52.6667
52.664
52.6614
52.6587
52.656
52.6534
52.6507
52.648
52.6454
52.6427
52.6401
52.6374
52.6347
52.6321
52.6294
52.6268
52.6241
52.6214
52.6188
52.6161
52.6135
52.6108
52.6082
52.6055
52.6028
52.6002
52.5975
52.5949
52.5922
52.5896
52.5869
52.5843
52.5816
52.579
52.5763
52.5736
52.571
52.5683
52.5657
52.563
52.5604
52.5577
52.5551
52.5524
52.5498
52.5471
52.5445
52.5418
52.5392
52.5366
52.5339
52.5313
52.5286
52.526
52.5233
52.5207
52.518
52.5154
52.5127
52.5101
52.5075
52.5048
52.5022
52.4995
52.4969
52.4943
52.4916
52.489
52.4863
52.4837
52.4811
52.4784
52.4758
52.4731
52.4705
52.4679
52.4652
52.4626
52.46
52.4573
52.4547
52.452
52.4494
52.4468
52.4441
52.4415
52.4389
52.4362
52.4336
52.431
52.4283
52.4257
52.4231
52.4205
52.4178
52.4152
52.4126
52.4099
52.4073
52.4047
52.4021
52.3994
52.3968
52.3942
52.3915
52.3889
52.3863
52.3837
52.381
52.3784
52.3758
52.3732
52.3705
52.3679
52.3653
52.3627
52.3601
52.3574
52.3548
52.3522
52.3496
52.347
52.3443
52.3417
52.3391
52.3365
52.3339
52.3312
52.3286
52.326
52.3234
52.3208
52.3182
52.3155
52.3129
52.3103
52.3077
52.3051
52.3025
52.2999
52.2972
52.2946
52.292
52.2894
52.2868
52.2842
52.2816
52.279
52.2763
52.2737
52.2711
52.2685
52.2659
52.2633
52.2607
52.2581
52.2555
52.2529
52.2503
52.2477
52.2451
52.2425
52.2398
52.2372
52.2346
52.232
52.2294
52.2268
52.2242
52.2216
52.219
52.2164
52.2138
52.2112
52.2086
52.206
52.2034
52.2008
52.1982
52.1956
52.193
52.1904
52.1878
52.1852
52.1826
52.18
52.1774
52.1748
52.1723
52.1697
52.1671
52.1645
52.1619
52.1593
52.1567
52.1541
52.1515
52.1489
52.1463
52.1437
52.1411
52.1385
52.136
52.1334
52.1308
52.1282
52.1256
52.123
52.1204
52.1178
52.1152
52.1127
52.1101
52.1075
52.1049
52.1023
52.0997
52.0971
52.0946
52.092
52.0894
52.0868
52.0842
52.0816
52.0791
52.0765
52.0739
52.0713
52.0687
52.0662
52.0636
52.061
52.0584
52.0558
52.0533
52.0507
52.0481
52.0455
52.043
52.0404
52.0378
52.0352
52.0327
52.0301
52.0275
52.0249
52.0224
52.0198
52.0172
52.0146
52.0121
52.0095
52.0069
52.0044
52.0018
51.9992
51.9966
51.9941
51.9915
51.9889
51.9864
51.9838
51.9812
51.9787
51.9761
51.9735
51.971
51.9684
51.9658
51.9633
51.9607
51.9581
51.9556
51.953
51.9504
51.9479
51.9453
51.9428
51.9402
51.9376
51.9351
51.9325
51.9299
51.9274
51.9248
51.9223
51.9197
51.9171
51.9146
51.912
51.9095
51.9069
51.9044
51.9018
51.8992
51.8967
51.8941
51.8916
51.889
51.8865
51.8839
51.8814
51.8788
51.8763
51.8737
51.8712
51.8686
51.8661
51.8635
51.861
51.8584
51.8559
51.8533
51.8508
51.8482
51.8457
51.8431
51.8406
51.838
51.8355
51.8329
51.8304
51.8278
51.8253
51.8227
51.8202
51.8176
51.8151
51.8126
51.81
51.8075
51.8049
51.8024
51.7998
51.7973
51.7948
51.7922
51.7897
51.7871
51.7846
51.7821
51.7795
51.777
51.7744
51.7719
51.7694
51.7668
51.7643
51.7618
51.7592
51.7567
51.7542
51.7516
51.7491
51.7466
51.744
51.7415
51.739
51.7364
51.7339
51.7314
51.7288
51.7263
51.7238
51.7212
51.7187
51.7162
51.7136
51.7111
51.7086
51.7061
51.7035
51.701
51.6985
51.6959
51.6934
51.6909
51.6884
51.6858
51.6833
51.6808
51.6783
51.6757
51.6732
51.6707
51.6682
51.6657
51.6631
51.6606
51.6581
51.6556
51.653
51.6505
51.648
51.6455
51.643
51.6404
51.6379
51.6354
51.6329
51.6304
51.6279
51.6253
51.6228
51.6203
51.6178
51.6153
51.6128
51.6103
51.6077
51.6052
51.6027
51.6002
51.5977
51.5952
51.5927
51.5901
51.5876
51.5851
51.5826
51.5801
51.5776
51.5751
51.5726
51.5701
51.5676
51.5651
51.5625
51.56
51.5575
51.555
51.5525
51.55
51.5475
51.545
51.5425
51.54
51.5375
51.535
51.5325
51.53
51.5275
51.525
51.5225
51.52
51.5175
51.515
51.5125
51.51
51.5075
51.505
51.5025
51.5
51.4975
51.495
51.4925
51.49
51.4875
51.485
51.4825
51.48
51.4775
51.475
51.4725
51.47
51.4675
51.465
51.4625
51.4601
51.4576
51.4551
51.4526
51.4501
51.4476
51.4451
51.4426
51.4401
51.4376
51.4351
51.4327
51.4302
51.4277
51.4252
51.4227
51.4202
51.4177
51.4152
51.4128
51.4103
51.4078
51.4053
51.4028
51.4003
51.3979
51.3954
51.3929
51.3904
51.3879
51.3854
51.383
51.3805
51.378
51.3755
51.373
51.3706
51.3681
51.3656
51.3631
51.3606
51.3582
51.3557
51.3532
51.3507
51.3483
51.3458
51.3433
51.3408
51.3384
51.3359
51.3334
51.3309
51.3285
51.326
51.3235
51.321
51.3186
51.3161
51.3136
51.3112
51.3087
51.3062
51.3038
51.3013
51.2988
51.2963
51.2939
51.2914
51.2889
51.2865
51.284
51.2815
51.2791
51.2766
51.2741
51.2717
51.2692
51.2667
51.2643
51.2618
51.2594
51.2569
51.2544
51.252
51.2495
51.247
51.2446
51.2421
51.2397
51.2372
51.2347
51.2323
51.2298
51.2274
51.2249
51.2224
51.22
51.2175
51.2151
51.2126
51.2102
51.2077
51.2053
51.2028
51.2003
51.1979
51.1954
51.193
51.1905
51.1881
51.1856
51.1832
51.1807
51.1783
51.1758
51.1734
51.1709
51.1685
51.166
51.1636
51.1611
51.1587
51.1562
51.1538
51.1513
51.1489
51.1464
51.144
51.1415
51.1391
51.1367
51.1342
51.1318
51.1293
51.1269
51.1244
51.122
51.1195
51.1171
51.1147
51.1122
51.1098
51.1073
51.1049
51.1025
51.1
51.0976
51.0951
51.0927
51.0903
51.0878
51.0854
51.0829
51.0805
51.0781
51.0756
51.0732
51.0708
51.0683
51.0659
51.0635
51.061
51.0586
51.0562
51.0537
51.0513
51.0489
51.0464
51.044
51.0416
51.0391
51.0367
51.0343
51.0318
51.0294
51.027
51.0246
51.0221
51.0197
51.0173
51.0148
51.0124
51.01
51.0076
51.0051
51.0027
51.0003
50.9979
50.9954
50.993
50.9906
50.9882
50.9857
50.9833
50.9809
50.9785
50.9761
50.9736
50.9712
50.9688
50.9664
50.964
50.9615
50.9591
50.9567
50.9543
50.9519
50.9494
50.947
50.9446
50.9422
50.9398
50.9374
50.9349
50.9325
50.9301
50.9277
50.9253
50.9229
50.9205
50.918
50.9156
50.9132
50.9108
50.9084
50.906
50.9036
50.9012
50.8988
50.8963
50.8939
50.8915
50.8891
50.8867
50.8843
50.8819
50.8795
50.8771
50.8747
50.8723
50.8699
50.8675
50.865
50.8626
50.8602
50.8578
50.8554
50.853
50.8506
50.8482
50.8458
50.8434
50.841
50.8386
50.8362
50.8338
50.8314
50.829
50.8266
50.8242
50.8218
50.8194
50.817
50.8146
50.8122
50.8098
50.8074
50.805
50.8026
50.8002
50.7978
50.7955
50.7931
50.7907
50.7883
50.7859
50.7835
50.7811
50.7787
50.7763
50.7739
50.7715
50.7691
50.7667
50.7644
50.762
50.7596
50.7572
50.7548
50.7524
50.75
50.7476
50.7452
50.7429
50.7405
50.7381
50.7357
50.7333
50.7309
50.7285
50.7262
50.7238
50.7214
50.719
50.7166
50.7142
50.7119
50.7095
50.7071
50.7047
50.7023
50.7
50.6976
50.6952
50.6928
50.6904
50.6881
50.6857
50.6833
50.6809
50.6785
50.6762
50.6738
50.6714
50.669
50.6667
50.6643
50.6619
50.6595
50.6572
50.6548
50.6524
50.65
50.6477
50.6453
50.6429
50.6405
50.6382
50.6358
50.6334
50.6311
50.6287
50.6263
50.624
50.6216
50.6192
50.6169
50.6145
50.6121
50.6097
50.6074
50.605
50.6026
50.6003
50.5979
50.5956
50.5932
50.5908
50.5885
50.5861
50.5837
50.5814
50.579
50.5766
50.5743
50.5719
50.5696
50.5672
50.5648
50.5625
50.5601
50.5578
50.5554
50.553
50.5507
50.5483
50.546
50.5436
50.5413
50.5389
50.5365
50.5342
50.5318
50.5295
50.5271
50.5248
50.5224
50.5201
50.5177
50.5154
50.513
50.5106
50.5083
50.5059
50.5036
50.5012
50.4989
50.4965
50.4942
50.4918
50.4895
50.4871
50.4848
50.4824
50.4801
50.4778
50.4754
50.4731
50.4707
50.4684
50.466
50.4637
50.4613
50.459
50.4566
50.4543
50.452
50.4496
50.4473
50.4449
50.4426
50.4402
50.4379
50.4356
50.4332
50.4309
50.4285
50.4262
50.4239
50.4215
50.4192
50.4168
50.4145
50.4122
50.4098
50.4075
50.4052
50.4028
50.4005
50.3982
50.3958
50.3935
50.3911
50.3888
50.3865
50.3841
50.3818
50.3795
50.3771
50.3748
50.3725
50.3702
50.3678
50.3655
50.3632
50.3608
50.3585
50.3562
50.3538
50.3515
50.3492
50.3469
50.3445
50.3422
50.3399
50.3376
50.3352
50.3329
50.3306
50.3283
50.3259
50.3236
50.3213
50.319
50.3166
50.3143
50.312
50.3097
50.3073
50.305
50.3027
50.3004
50.2981
50.2957
50.2934
50.2911
50.2888
50.2865
50.2841
50.2818
50.2795
50.2772
50.2749
50.2726
50.2702
50.2679
50.2656
50.2633
50.261
50.2587
50.2564
50.254
50.2517
50.2494
50.2471
50.2448
50.2425
50.2402
50.2379
50.2355
50.2332
50.2309
50.2286
50.2263
50.224
50.2217
50.2194
50.2171
50.2148
50.2125
50.2101
50.2078
50.2055
50.2032
50.2009
50.1986
50.1963
50.194
50.1917
50.1894
50.1871
50.1848
50.1825
50.1802
50.1779
50.1756
50.1733
50.171
50.1687
50.1664
50.1641
50.1618
50.1595
50.1572
50.1549
50.1526
50.1503
50.148
50.1457
50.1434
50.1411
50.1388
50.1365
50.1342
50.1319
50.1296
50.1273
50.125
50.1227
50.1204
50.1182
50.1159
50.1136
50.1113
50.109
50.1067
50.1044
50.1021
50.0998
50.0975
50.0952
50.093
50.0907
50.0884
50.0861
50.0838
50.0815
50.0792
50.0769
50.0747
50.0724
50.0701
50.0678
50.0655
50.0632
50.0609
50.0587
50.0564
50.0541
50.0518
50.0495
50.0472
50.045
50.0427
50.0404
50.0381
50.0358
50.0336
50.0313
50.029
50.0267
50.0244
50.0222
50.0199
50.0176
50.0153
50.0131
50.0108
50.0085
50.0062
50.0039
50.0017
49.9994
49.9971
49.9948
49.9926
49.9903
49.988
49.9858
49.9835
49.9812
49.9789
49.9767
49.9744
49.9721
49.9699
49.9676
49.9653
49.963
49.9608
49.9585
49.9562
49.954
49.9517
49.9494
49.9472
49.9449
49.9426
49.9404
49.9381
49.9358
49.9336
49.9313
49.929
49.9268
49.9245
49.9223
49.92
49.9177
49.9155
49.9132
49.9109
49.9087
49.9064
49.9042
49.9019
49.8996
49.8974
49.8951
49.8929
49.8906
49.8883
49.8861
49.8838
49.8816
49.8793
49.8771
49.8748
49.8726
49.8703
49.868
49.8658
49.8635
49.8613
49.859
49.8568
49.8545
49.8523
49.85
49.8478
49.8455
49.8433
49.841
49.8388
49.8365
49.8343
49.832
49.8298
49.8275
49.8253
49.823
49.8208
49.8185
49.8163
49.814
49.8118
49.8095
49.8073
49.805
49.8028
49.8006
49.7983
49.7961
49.7938
49.7916
49.7893
49.7871
49.7849
49.7826
49.7804
49.7781
49.7759
49.7737
49.7714
49.7692
49.7669
49.7647
49.7625
49.7602
49.758
49.7557
49.7535
49.7513
49.749
49.7468
49.7446
49.7423
49.7401
49.7379
49.7356
49.7334
49.7312
49.7289
49.7267
49.7245
49.7222
49.72
49.7178
49.7155
49.7133
49.7111
49.7088
49.7066
49.7044
49.7021
49.6999
49.6977
49.6955
49.6932
49.691
49.6888
49.6865
49.6843
49.6821
49.6799
49.6776
49.6754
49.6732
49.671
49.6687
49.6665
49.6643
49.6621
49.6599
49.6576
49.6554
49.6532
49.651
49.6487
49.6465
49.6443
49.6421
49.6399
49.6376
49.6354
49.6332
49.631
49.6288
49.6266
49.6243
49.6221
49.6199
49.6177
49.6155
49.6133
49.611
49.6088
49.6066
49.6044
49.6022
49.6
49.5978
49.5955
49.5933
49.5911
49.5889
49.5867
49.5845
49.5823
49.5801
49.5779
49.5756
49.5734
49.5712
49.569
49.5668
49.5646
49.5624
49.5602
49.558
49.5558
49.5536
49.5514
49.5492
49.5469
49.5447
49.5425
49.5403
49.5381
49.5359
49.5337
49.5315
49.5293
49.5271
49.5249
49.5227
49.5205
49.5183
49.5161
49.5139
49.5117
49.5095
49.5073
49.5051
49.5029
49.5007
49.4985
49.4963
49.4941
49.4919
49.4897
49.4875
49.4853
49.4831
49.481
49.4788
49.4766
49.4744
49.4722
49.47
49.4678
49.4656
49.4634
49.4612
49.459
49.4568
49.4546
49.4524
49.4503
49.4481
49.4459
49.4437
49.4415
49.4393
49.4371
49.4349
49.4327
49.4306
49.4284
49.4262
49.424
49.4218
49.4196
49.4174
49.4153
49.4131
49.4109
49.4087
49.4065
49.4043
49.4022
49.4
49.3978
49.3956
49.3934
49.3913
49.3891
49.3869
49.3847
49.3825
49.3804
49.3782
49.376
49.3738
49.3716
49.3695
49.3673
49.3651
49.3629
49.3608
49.3586
49.3564
49.3542
49.3521
49.3499
49.3477
49.3455
49.3434
49.3412
49.339
49.3368
49.3347
49.3325
49.3303
49.3282
49.326
49.3238
49.3216
49.3195
49.3173
49.3151
49.313
49.3108
49.3086
49.3065
49.3043
49.3021
49.3
49.2978
49.2956
49.2935
49.2913
49.2891
49.287
49.2848
49.2826
49.2805
49.2783
49.2761
49.274
49.2718
49.2697
49.2675
49.2653
49.2632
49.261
49.2589
49.2567
49.2545
49.2524
49.2502
49.2481
49.2459
49.2437
49.2416
49.2394
49.2373
49.2351
49.233
49.2308
49.2287
49.2265
49.2243
49.2222
49.22
49.2179
49.2157
49.2136
49.2114
49.2093
49.2071
49.205
49.2028
49.2007
49.1985
49.1964
49.1942
49.1921
49.1899
49.1878
49.1856
49.1835
49.1813
49.1792
49.177
49.1749
49.1727
49.1706
49.1684
49.1663
49.1641
49.162
49.1599
49.1577
49.1556
49.1534
49.1513
49.1491
49.147
49.1449
49.1427
49.1406
49.1384
49.1363
49.1341
49.132
49.1299
49.1277
49.1256
49.1235
49.1213
49.1192
49.117
49.1149
49.1128
49.1106
49.1085
49.1064
49.1042
49.1021
49.0999
49.0978
49.0957
49.0935
49.0914
49.0893
49.0871
49.085
49.0829
49.0807
49.0786
49.0765
49.0744
49.0722
49.0701
49.068
49.0658
49.0637
49.0616
49.0594
49.0573
49.0552
49.0531
49.0509
49.0488
49.0467
49.0446
49.0424
49.0403
49.0382
49.036
49.0339
49.0318
49.0297
49.0276
49.0254
49.0233
49.0212
49.0191
49.0169
49.0148
49.0127
49.0106
49.0085
49.0063
49.0042
49.0021
49
48.9979
48.9957
48.9936
48.9915
48.9894
48.9873
48.9852
48.983
48.9809
48.9788
48.9767
48.9746