# vtk DataFile Version 2.0
vtk output
ASCII
DATASET STRUCTURED_GRID
DIMENSIONS 50 10 30
POINTS 15000 float
0 0 0
1 0 0
2 0 0
3 0 0
4 0 0
5 0 0
6 0 0
7 0 0
8 0 0
9 0 0
10 0 0
11 0 0
12 0 0
13 0 0
14 0 0
15 0 0
16 0 0
17 0 0
18 0 0
19 0 0
20 0 0
21 0 0
22 0 0
23 0 0
24 0 0
25 0 0
26 0 0
27 0 0
28 0 0
29 0 0
30 0 0
31 0 0
32 0 0
33 0 0
34 0 0
35 0 0
36 0 0
37 0 0
38 0 0
39 0 0
40 0 0
41 0 0
42 0 0
43 0 0
44 0 0
45 0 0
46 0 0
47 0 0
48 0 0
49 0 0
0 1 0
1 1 0
2 1 0
3 1 0
4 1 0
5 1 0
6 1 0
7 1 0
8 1 0
9 1 0
10 1 0
11 1 0
12 1 0
13 1 0
14 1 0
15 1 0
16 1 0
17 1 0
18 1 0
19 1 0
20 1 0
21 1 0
22 1 0
23 1 0
24 1 0
25 1 0
26 1 0
27 1 0
28 1 0
29 1 0
30 1 0
31 1 0
32 1 0
33 1 0
34 1 0
35 1 0
36 1 0
37 1 0
38 1 0
39 1 0
40 1 0
41 1 0
42 1 0
43 1 0
44 1 0
45 1 0
46 1 0
47 1 0
48 1 0
49 1 0
0 2 0
1 2 0
2 2 0
3 2 0
4 2 0
5 2 0
6 2 0
7 2 0
8 2 0
9 2 0
10 2 0
11 2 0
12 2 0
13 2 0
14 2 0
15 2 0
16 2 0
17 2 0
18 2 0
19 2 0
20 2 0
21 2 0
22 2 0
23 2 0
24 2 0
25 2 0
26 2 0
27 2 0
28 2 0
29 2 0
30 2 0
31 2 0
32 2 0
33 2 0
34 2 0
35 2 0
36 2 0
37 2 0
38 2 0
39 2 0
40 2 0
41 2 0
42 2 0
43 2 0
44 2 0
45 2 0
46 2 0
47 2 0
48 2 0
49 2 0
0 3 0
1 3 0
2 3 0
3 3 0
4 3 0
5 3 0
6 3 0
7 3 0
8 3 0
9 3 0
10 3 0
11 3 0
12 3 0
13 3 0
14 3 0
15 3 0
16 3 0
17 3 0
18 3 0
19 3 0
20 3 0
21 3 0
22 3 0
23 3 0
24 3 0
25 3 0
26 3 0
27 3 0
28 3 0
29 3 0
30 3 0
31 3 0
32 3 0
33 3 0
34 3 0
35 3 0
36 3 0
37 3 0
38 3 0
39 3 0
40 3 0
41 3 0
42 3 0
43 3 0
44 3 0
45 3 0
46 3 0
47 3 0
48 3 0
49 3 0
0 4 0
1 4 0
2 4 0
3 4 0
4 4 0
5 4 0
6 4 0
7 4 0
8 4 0
9 4 0
10 4 0
11 4 0
12 4 0
13 4 0
14 4 0
15 4 0
16 4 0
17 4 0
18 4 0
19 4 0
20 4 0
21 4 0
22 4 0
23 4 0
24 4 0
25 4 0
26 4 0
27 4 0
28 4 0
29 4 0
30 4 0
31 4 0
32 4 0
33 4 0
34 4 0
35 4 0
36 4 0
37 4 0
38 4 0
39 4 0
40 4 0
41 4 0
42 4 0
43 4 0
44 4 0
45 4 0
46 4 0
47 4 0
48 4 0
49 4 0
0 5 0
1 5 0
2 5 0
3 5 0
4 5 0
5 5 0
6 5 0
7 5 0
8 5 0
9 5 0
10 5 0
11 5 0
12 5 0
13 5 0
14 5 0
15 5 0
16 5 0
17 5 0
18 5 0
19 5 0
20 5 0
21 5 0
22 5 0
23 5 0
24 5 0
25 5 0
26 5 0
27 5 0
28 5 0
29 5 0
30 5 0
31 5 0
32 5 0
33 5 0
34 5 0
35 5 0
36 5 0
37 5 0
38 5 0
39 5 0
40 5 0
41 5 0
42 5 0
43 5 0
44 5 0
45 5 0
46 5 0
47 5 0
48 5 0
49 5 0
0 6 0
1 6 0
2 6 0
3 6 0
4 6 0
5 6 0
6 6 0
7 6 0
8 6 0
9 6 0
10 6 0
11 6 0
12 6 0
13 6 0
14 6 0
15 6 0
16 6 0
17 6 0
18 6 0
19 6 0
20 6 0
21 6 0
22 6 0
23 6 0
24 6 0
25 6 0
26 6 0
27 6 0
28 6 0
29 6 0
30 6 0
31 6 0
32 6 0
33 6 0
34 6 0
35 6 0
36 6 0
37 6 0
38 6 0
39 6 0
40 6 0
41 6 0
42 6 0
43 6 0
44 6 0
45 6 0
46 6 0
47 6 0
48 6 0
49 6 0
0 7 0
1 7 0
2 7 0
3 7 0
4 7 0
5 7 0
6 7 0
7 7 0
8 7 0
9 7 0
10 7 0
11 7 0
12 7 0
13 7 0
14 7 0
15 7 0
16 7 0
17 7 0
18 7 0
19 7 0
20 7 0
21 7 0
22 7 0
23 7 0
24 7 0
25 7 0
26 7 0
27 7 0
28 7 0
29 7 0
30 7 0
31 7 0
32 7 0
33 7 0
34 7 0
35 7 0
36 7 0
37 7 0
38 7 0
39 7 0
40 7 0
41 7 0
42 7 0
43 7 0
44 7 0
45 7 0
46 7 0
47 7 0
48 7 0
49 7 0
0 8 0
1 8 0
2 8 0
3 8 0
4 8 0
5 8 0
6 8 0
7 8 0
8 8 0
9 8 0
10 8 0
11 8 0
12 8 0
13 8 0
14 8 0
15 8 0
16 8 0
17 8 0
18 8 0
19 8 0
20 8 0
21 8 0
22 8 0
23 8 0
24 8 0
25 8 0
26 8 0
27 8 0
28 8 0
29 8 0
30 8 0
31 8 0
32 8 0
33 8 0
34 8 0
35 8 0
36 8 0
37 8 0
38 8 0
39 8 0
40 8 0
41 8 0
42 8 0
43 8 0
44 8 0
45 8 0
46 8 0
47 8 0
48 8 0
49 8 0
0 9 0
1 9 0
2 9 0
3 9 0
4 9 0
5 9 0
6 9 0
7 9 0
8 9 0
9 9 0
10 9 0
11 9 0
12 9 0
13 9 0
14 9 0
15 9 0
16 9 0
17 9 0
18 9 0
19 9 0
20 9 0
21 9 0
22 9 0
23 9 0
24 9 0
25 9 0
26 9 0
27 9 0
28 9 0
29 9 0
30 9 0
31 9 0
32 9 0
33 9 0
34 9 0
35 9 0
36 9 0
37 9 0
38 9 0
39 9 0
40 9 0
41 9 0
42 9 0
43 9 0
44 9 0
45 9 0
46 9 0
47 9 0
48 9 0
49 9 0
0 0 1
1 0 1
2 0 1
3 0 1
4 0 1
5 0 1
6 0 1
7 0 1
8 0 1
9 0 1
10 0 1
11 0 1
12 0 1
13 0 1
14 0 1
15 0 1
16 0 1
17 0 1
18 0 1
19 0 1
20 0 1
21 0 1
22 0 1
23 0 1
24 0 1
25 0 1
26 0 1
27 0 1
28 0 1
29 0 1
30 0 1
31 0 1
32 0 1
33 0 1
34 0 1
35 0 1
36 0 1
37 0 1
38 0 1
39 0 1
40 0 1
41 0 1
42 0 1
43 0 1
44 0 1
45 0 1
46 0 1
47 0 1
48 0 1
49 0 1
0 1 1
1 1 1
2 1 1
3 1 1
4 1 1
5 1 1
6 1 1
7 1 1
8 1 1
9 1 1
10 1 1
11 1 1
12 1 1
13 1 1
14 1 1
15 1 1
16 1 1
17 1 1
18 1 1
19 1 1
20 1 1
21 1 1
22 1 1
23 1 1
24 1 1
25 1 1
26 1 1
27 1 1
28 1 1
29 1 1
30 1 1
31 1 1
32 1 1
33 1 1
34 1 1
35 1 1
36 1 1
37 1 1
38 1 1
39 1 1
40 1 1
41 1 1
42 1 1
43 1 1
44 1 1
45 1 1
46 1 1
47 1 1
48 1 1
49 1 1
0 2 1
1 2 1
2 2 1
3 2 1
4 2 1
5 2 1
6 2 1
7 2 1
8 2 1
9 2 1
10 2 1
11 2 1
12 2 1
13 2 1
14 2 1
15 2 1
16 2 1
17 2 1
18 2 1
19 2 1
20 2 1
21 2 1
22 2 1
23 2 1
24 2 1
25 2 1
26 2 1
27 2 1
28 2 1
29 2 1
30 2 1
31 2 1
32 2 1
33 2 1
34 2 1
35 2 1
36 2 1
37 2 1
38 2 1
39 2 1
40 2 1
41 2 1
42 2 1
43 2 1
44 2 1
45 2 1
46 2 1
47 2 1
48 2 1
49 2 1
0 3 1
1 3 1
2 3 1
3 3 1
4 3 1
5 3 1
6 3 1
7 3 1
8 3 1
9 3 1
10 3 1
11 3 1
12 3 1
13 3 1
14 3 1
15 3 1
16 3 1
17 3 1
18 3 1
19 3 1
20 3 1
21 3 1
22 3 1
23 3 1
24 3 1
25 3 1
26 3 1
27 3 1
28 3 1
29 3 1
30 3 1
31 3 1
32 3 1
33 3 1
34 3 1
35 3 1
36 3 1
37 3 1
38 3 1
39 3 1
40 3 1
41 3 1
42 3 1
43 3 1
44 3 1
45 3 1
46 3 1
47 3 1
48 3 1
49 3 1
0 4 1
1 4 1
2 4 1
3 4 1
4 4 1
5 4 1
6 4 1
7 4 1
8 4 1
9 4 1
10 4 1
11 4 1
12 4 1
13 4 1
14 4 1
15 4 1
16 4 1
17 4 1
18 4 1
19 4 1
20 4 1
21 4 1
22 4 1
23 4 1
24 4 1
25 4 1
26 4 1
27 4 1
28 4 1
29 4 1
30 4 1
31 4 1
32 4 1
33 4 1
34 4 1
35 4 1
36 4 1
37 4 1
38 4 1
39 4 1
40 4 1
41 4 1
42 4 1
43 4 1
44 4 1
45 4 1
46 4 1
47 4 1
48 4 1
49 4 1
0 5 1
1 5 1
2 5 1
3 5 1
4 5 1
5 5 1
6 5 1
7 5 1
8 5 1
9 5 1
10 5 1
11 5 1
12 5 1
13 5 1
14 5 1
15 5 1
16 5 1
17 5 1
18 5 1
19 5 1
20 5 1
21 5 1
22 5 1
23 5 1
24 5 1
25 5 1
26 5 1
27 5 1
28 5 1
29 5 1
30 5 1
31 5 1
32 5 1
33 5 1
34 5 1
35 5 1
36 5 1
37 5 1
38 5 1
39 5 1
40 5 1
41 5 1
42 5 1
43 5 1
44 5 1
45 5 1
46 5 1
47 5 1
48 5 1
49 5 1
0 6 1
1 6 1
2 6 1
3 6 1
4 6 1
5 6 1
6 6 1
7 6 1
8 6 1
9 6 1
10 6 1
11 6 1
12 6 1
13 6 1
14 6 1
15 6 1
16 6 1
17 6 1
18 6 1
19 6 1
20 6 1
21 6 1
22 6 1
23 6 1
24 6 1
25 6 1
26 6 1
27 6 1
28 6 1
29 6 1
30 6 1
31 6 1
32 6 1
33 6 1
34 6 1
35 6 1
36 6 1
37 6 1
38 6 1
39 6 1
40 6 1
41 6 1
42 6 1
43 6 1
44 6 1
45 6 1
46 6 1
47 6 1
48 6 1
49 6 1
0 7 1
1 7 1
2 7 1
3 7 1
4 7 1
5 7 1
6 7 1
7 7 1
8 7 1
9 7 1
10 7 1
11 7 1
12 7 1
13 7 1
14 7 1
15 7 1
16 7 1
17 7 1
18 7 1
19 7 1
20 7 1
21 7 1
22 7 1
23 7 1
24 7 1
25 7 1
26 7 1
27 7 1
28 7 1
29 7 1
30 7 1
31 7 1
32 7 1
33 7 1
34 7 1
35 7 1
36 7 1
37 7 1
38 7 1
39 7 1
40 7 1
41 7 1
42 7 1
43 7 1
44 7 1
45 7 1
46 7 1
47 7 1
48 7 1
49 7 1
0 8 1
1 8 1
2 8 1
3 8 1
4 8 1
5 8 1
6 8 1
7 8 1
8 8 1
9 8 1
10 8 1
11 8 1
12 8 1
13 8 1
14 8 1
15 8 1
16 8 1
17 8 1
18 8 1
19 8 1
20 8 1
21 8 1
22 8 1
23 8 1
24 8 1
25 8 1
26 8 1
27 8 1
28 8 1
29 8 1
30 8 1
31 8 1
32 8 1
33 8 1
34 8 1
35 8 1
36 8 1
37 8 1
38 8 1
39 8 1
40 8 1
41 8 1
42 8 1
43 8 1
44 8 1
45 8 1
46 8 1
47 8 1
48 8 1
49 8 1
0 9 1
1 9 1
2 9 1
3 9 1
4 9 1
5 9 1
6 9 1
7 9 1
8 9 1
9 9 1
10 9 1
11 9 1
12 9 1
13 9 1
14 9 1
15 9 1
16 9 1
17 9 1
18 9 1
19 9 1
20 9 1
21 9 1
22 9 1
23 9 1
24 9 1
25 9 1
26 9 1
27 9 1
28 9 1
29 9 1
30 9 1
31 9 1
32 9 1
33 9 1
34 9 1
35 9 1
36 9 1
37 9 1
38 9 1
39 9 1
40 9 1
41 9 1
42 9 1
43 9 1
44 9 1
45 9 1
46 9 1
47 9 1
48 9 1
49 9 1
0 0 2
1 0 2
2 0 2
3 0 2
4 0 2
5 0 2
6 0 2
7 0 2
8 0 2
9 0 2
10 0 2
11 0 2
12 0 2
13 0 2
14 0 2
15 0 2
16 0 2
17 0 2
18 0 2
19 0 2
20 0 2
21 0 2
22 0 2
23 0 2
24 0 2
25 0 2
26 0 2
27 0 2
28 0 2
29 0 2
30 0 2
31 0 2
32 0 2
33 0 2
34 0 2
35 0 2
36 0 2
37 0 2
38 0 2
39 0 2
40 0 2
41 0 2
42 0 2
43 0 2
44 0 2
45 0 2
46 0 2
47 0 2
48 0 2
49 0 2
0 1 2
1 1 2
2 1 2
3 1 2
4 1 2
5 1 2
6 1 2
7 1 2
8 1 2
9 1 2
10 1 2
11 1 2
12 1 2
13 1 2
14 1 2
15 1 2
16 1 2
17 1 2
18 1 2
19 1 2
20 1 2
21 1 2
22 1 2
23 1 2
24 1 2
25 1 2
26 1 2
27 1 2
28 1 2
29 1 2
30 1 2
31 1 2
32 1 2
33 1 2
34 1 2
35 1 2
36 1 2
37 1 2
38 1 2
39 1 2
40 1 2
41 1 2
42 1 2
43 1 2
44 1 2
45 1 2
46 1 2
47 1 2
48 1 2
49 1 2
0 2 2
1 2 2
2 2 2
3 2 2
4 2 2
5 2 2
6 2 2
7 2 2
8 2 2
9 2 2
10 2 2
11 2 2
12 2 2
13 2 2
14 2 2
15 2 2
16 2 2
17 2 2
18 2 2
19 2 2
20 2 2
21 2 2
22 2 2
23 2 2
24 2 2
25 2 2
26 2 2
27 2 2
28 2 2
29 2 2
30 2 2
31 2 2
32 2 2
33 2 2
34 2 2
35 2 2
36 2 2
37 2 2
38 2 2
39 2 2
40 2 2
41 2 2
42 2 2
43 2 2
44 2 2
45 2 2
46 2 2
47 2 2
48 2 2
49 2 2
0 3 2
1 3 2
2 3 2
3 3 2
4 3 2
5 3 2
6 3 2
7 3 2
8 3 2
9 3 2
10 3 2
11 3 2
12 3 2
13 3 2
14 3 2
15 3 2
16 3 2
17 3 2
18 3 2
19 3 2
20 3 2
21 3 2
22 3 2
23 3 2
24 3 2
25 3 2
26 3 2
27 3 2
28 3 2
29 3 2
30 3 2
31 3 2
32 3 2
33 3 2
34 3 2
35 3 2
36 3 2
37 3 2
38 3 2
39 3 2
40 3 2
41 3 2
42 3 2
43 3 2
44 3 2
45 3 2
46 3 2
47 3 2
48 3 2
49 3 2
0 4 2
1 4 2
2 4 2
3 4 2
4 4 2
5 4 2
6 4 2
7 4 2
8 4 2
9 4 2
10 4 2
11 4 2
12 4 2
13 4 2
14 4 2
15 4 2
16 4 2
17 4 2
18 4 2
19 4 2
20 4 2
21 4 2
22 4 2
23 4 2
24 4 2
25 4 2
26 4 2
27 4 2
28 4 2
29 4 2
30 4 2
31 4 2
32 4 2
33 4 2
34 4 2
35 4 2
36 4 2
37 4 2
38 4 2
39 4 2
40 4 2
41 4 2
42 4 2
43 4 2
44 4 2
45 4 2
46 4 2
47 4 2
48 4 2
49 4 2
0 5 2
1 5 2
2 5 2
3 5 2
4 5 2
5 5 2
6 5 2
7 5 2
8 5 2
9 5 2
10 5 2
11 5 2
12 5 2
13 5 2
14 5 2
15 5 2
16 5 2
17 5 2
18 5 2
19 5 2
20 5 2
21 5 2
22 5 2
23 5 2
24 5 2
25 5 2
26 5 2
27 5 2
28 5 2
29 5 2
30 5 2
31 5 2
32 5 2
33 5 2
34 5 2
35 5 2
36 5 2
37 5 2
38 5 2
39 5 2
40 5 2
41 5 2
42 5 2
43 5 2
44 5 2
45 5 2
46 5 2
47 5 2
48 5 2
49 5 2
0 6 2
1 6 2
2 6 2
3 6 2
4 6 2
5 6 2
6 6 2
7 6 2
8 6 2
9 6 2
10 6 2
11 6 2
12 6 2
13 6 2
14 6 2
15 6 2
16 6 2
17 6 2
18 6 2
19 6 2
20 6 2
21 6 2
22 6 2
23 6 2
24 6 2
25 6 2
26 6 2
27 6 2
28 6 2
29 6 2
30 6 2
31 6 2
32 6 2
33 6 2
34 6 2
35 6 2
36 6 2
37 6 2
38 6 2
39 6 2
40 6 2
41 6 2
42 6 2
43 6 2
44 6 2
45 6 2
46 6 2
47 6 2
48 6 2
49 6 2
0 7 2
1 7 2
2 7 2
3 7 2
4 7 2
5 7 2
6 7 2
7 7 2
8 7 2
9 7 2
10 7 2
11 7 2
12 7 2
13 7 2
14 7 2
15 7 2
16 7 2
17 7 2
18 7 2
19 7 2
20 7 2
21 7 2
22 7 2
23 7 2
24 7 2
25 7 2
26 7 2
27 7 2
28 7 2
29 7 2
30 7 2
31 7 2
32 7 2
33 7 2
34 7 2
35 7 2
36 7 2
37 7 2
38 7 2
39 7 2
40 7 2
41 7 2
42 7 2
43 7 2
44 7 2
45 7 2
46 7 2
47 7 2
48 7 2
49 7 2
0 8 2
1 8 2
2 8 2
3 8 2
4 8 2
5 8 2
6 8 2
7 8 2
8 8 2
9 8 2
10 8 2
11 8 2
12 8 2
13 8 2
14 8 2
15 8 2
16 8 2
17 8 2
18 8 2
19 8 2
20 8 2
21 8 2
22 8 2
23 8 2
24 8 2
25 8 2
26 8 2
27 8 2
28 8 2
29 8 2
30 8 2
31 8 2
32 8 2
33 8 2
34 8 2
35 8 2
36 8 2
37 8 2
38 8 2
39 8 2
40 8 2
41 8 2
42 8 2
43 8 2
44 8 2
45 8 2
46 8 2
47 8 2
48 8 2
49 8 2
0 9 2
1 9 2
2 9 2
3 9 2
4 9 2
[...]
POINT_DATA 15000
SCALARS sol177 float
LOOKUP_TABLE default
57.7575
57.7545
57.7514
57.7484
57.7453
57.7423
57.7393
57.7362
57.7332
57.7301
57.7271
57.724
57.721
57.7179
57.7149
57.7119
57.7088
57.7058
57.7027
57.6997
57.6966
57.6936
57.6906
57.6875
57.6845
57.6814
57.6784
57.6754
57.6723
57.6693
57.6663
57.6632
57.6602
57.6571
57.6541
57.6511
57.648
57.645
57.642
57.6389
57.6359
57.6329
57.6298
57.6268
57.6238
57.6207
57.6177
57.6147
57.6117
57.6086
57.6056
57.6026
57.5995
57.5965
57.5935
57.5905
57.5874
57.5844
57.5814
57.5784
57.5753
57.5723
57.5693
57.5663
57.5632
57.5602
57.5572
57.5542
57.5511
57.5481
57.5451
57.5421
57.5391
57.536
57.533
57.53
57.527
57.524
57.521
57.5179
57.5149
57.5119
57.5089
57.5059
57.5029
57.4998
57.4968
57.4938
57.4908
57.4878
57.4848
57.4818
57.4787
57.4757
57.4727
57.4697
57.4667
57.4637
57.4607
57.4577
57.4547
57.4517
57.4486
57.4456
57.4426
57.4396
57.4366
57.4336
57.4306
57.4276
57.4246
57.4216
57.4186
57.4156
57.4126
57.4096
57.4066
57.4036
57.4006
57.3976
57.3946
57.3916
57.3886
57.3856
57.3826
57.3796
57.3766
57.3736
57.3706
57.3676
57.3646
57.3616
57.3586
57.3556
57.3526
57.3496
57.3466
57.3436
57.3406
57.3376
57.3346
57.3316
57.3287
57.3257
57.3227
57.3197
57.3167
57.3137
57.3107
57.3077
57.3047
57.3017
57.2988
57.2958
57.2928
57.2898
57.2868
57.2838
57.2808
57.2779
57.2749
57.2719
57.2689
57.2659
57.2629
57.26
57.257
57.254
57.251
57.248
57.245
57.2421
57.2391
57.2361
57.2331
57.2301
57.2272
57.2242
57.2212
57.2182
57.2153
57.2123
57.2093
57.2063
57.2034
57.2004
57.1974
57.1944
57.1915
57.1885
57.1855
57.1825
57.1796
57.1766
57.1736
57.1707
57.1677
57.1647
57.1617
57.1588
57.1558
57.1528
57.1499
57.1469
57.1439
57.141
57.138
57.135
57.1321
57.1291
57.1261
57.1232
57.1202
57.1172
57.1143
57.1113
57.1084
57.1054
57.1024
57.0995
57.0965
57.0936
57.0906
57.0876
57.0847
57.0817
57.0788
57.0758
57.0728
57.0699
57.0669
57.064
57.061
57.0581
57.0551
57.0521
57.0492
57.0462
57.0433
57.0403
57.0374
57.0344
57.0315
57.0285
57.0256
57.0226
57.0197
57.0167
57.0138
57.0108
57.0079
57.0049
57.002
56.999
56.9961
56.9931
56.9902
56.9872
56.9843
56.9814
56.9784
56.9755
56.9725
56.9696
56.9666
56.9637
56.9607
56.9578
56.9549
56.9519
56.949
56.946
56.9431
56.9402
56.9372
56.9343
56.9313
56.9284
56.9255
56.9225
56.9196
56.9167
56.9137
56.9108
56.9078
56.9049
56.902
56.899
56.8961
56.8932
56.8902
56.8873
56.8844
56.8814
56.8785
56.8756
56.8727
56.8697
56.8668
56.8639
56.8609
56.858
56.8551
56.8522
56.8492
56.8463
56.8434
56.8404
56.8375
56.8346
56.8317
56.8287
56.8258
56.8229
56.82
56.817
56.8141
56.8112
56.8083
56.8054
56.8024
56.7995
56.7966
56.7937
56.7908
56.7878
56.7849
56.782
56.7791
56.7762
56.7732
56.7703
56.7674
56.7645
56.7616
56.7587
56.7558
56.7528
56.7499
56.747
56.7441
56.7412
56.7383
56.7354
56.7324
56.7295
56.7266
56.7237
56.7208
56.7179
56.715
56.7121
56.7092
56.7063
56.7034
56.7004
56.6975
56.6946
56.6917
56.6888
56.6859
56.683
56.6801
56.6772
56.6743
56.6714
56.6685
56.6656
56.6627
56.6598
56.6569
56.654
56.6511
56.6482
56.6453
56.6424
56.6395
56.6366
56.6337
56.6308
56.6279
56.625
56.6221
56.6192
56.6163
56.6134
56.6105
56.6076
56.6047
56.6018
56.5989
56.596
56.5932
56.5903
56.5874
56.5845
56.5816
56.5787
56.5758
56.5729
56.57
56.5671
56.5642
56.5614
56.5585
56.5556
56.5527
56.5498
56.5469
56.544
56.5411
56.5383
56.5354
56.5325
56.5296
56.5267
56.5238
56.521
56.5181
56.5152
56.5123
56.5094
56.5066
56.5037
56.5008
56.4979
56.495
56.4922
56.4893
56.4864
56.4835
56.4806
56.4778
56.4749
56.472
56.4691
56.4663
56.4634
56.4605
56.4576
56.4548
56.4519
56.449
56.4461
56.4433
56.4404
56.4375
56.4347
56.4318
56.4289
56.426
56.4232
56.4203
56.4174
56.4146
56.4117
56.4088
56.406
56.4031
56.4002
56.3974
56.3945
56.3916
56.3888
56.3859
56.383
56.3802
56.3773
56.3744
56.3716
56.3687
56.3659
56.363
56.3601
56.3573
56.3544
56.3516
56.3487
56.3458
56.343
56.3401
56.3373
56.3344
56.3316
56.3287
56.3258
56.323
56.3201
56.3173
56.3144
56.3116
56.3087
56.3059
56.303
56.3001
56.2973
56.2944
56.2916
56.2887
56.2859
56.283
56.2802
56.2773
56.2745
56.2716
56.2688
56.2659
56.2631
56.2602
56.2574
56.2546
56.2517
56.2489
56.246
56.2432
56.2403
56.2375
56.2346
56.2318
56.229
56.2261
56.2233
56.2204
56.2176
56.2147
56.2119
56.2091
56.2062
56.2034
56.2005
56.1977
56.1949
56.192
56.1892
56.1864
56.1835
56.1807
56.1778
56.175
56.1722
56.1693
56.1665
56.1637
56.1608
56.158
56.1552
56.1523
56.1495
56.1467
56.1438
56.141
56.1382
56.1353
56.1325
56.1297
56.1269
56.124
56.1212
56.1184
56.1155
56.1127
56.1099
56.1071
56.1042
56.1014
56.0986
56.0958
56.0929
56.0901
56.0873
56.0845
56.0816
56.0788
56.076
56.0732
56.0704
56.0675
56.0647
56.0619
56.0591
56.0563
56.0534
56.0506
56.0478
56.045
56.0422
56.0393
56.0365
56.0337
56.0309
56.0281
56.0253
56.0225
56.0196
56.0168
56.014
56.0112
56.0084
56.0056
56.0028
56
55.9971
55.9943
55.9915
55.9887
55.9859
55.9831
55.9803
55.9775
55.9747
55.9719
55.969
55.9662
55.9634
55.9606
55.9578
55.955
55.9522
55.9494
55.9466
55.9438
55.941
55.9382
55.9354
55.9326
55.9298
55.927
55.9242
55.9214
55.9186
55.9158
55.913
55.9102
55.9074
55.9046
55.9018
55.899
55.8962
55.8934
55.8906
55.8878
55.885
55.8822
55.8794
55.8766
55.8738
55.871
55.8682
55.8654
55.8627
55.8599
55.8571
55.8543
55.8515
55.8487
55.8459
55.8431
55.8403
55.8375
55.8347
55.832
55.8292
55.8264
55.8236
55.8208
55.818
55.8152
55.8124
55.8097
55.8069
55.8041
55.8013
55.7985
55.7957
55.793
55.7902
55.7874
55.7846
55.7818
55.779
55.7763
55.7735
55.7707
55.7679
55.7651
55.7624
55.7596
55.7568
55.754
55.7513
55.7485
55.7457
55.7429
55.7401
55.7374
55.7346
55.7318
55.729
55.7263
55.7235
55.7207
55.718
55.7152
55.7124
55.7096
55.7069
55.7041
55.7013
55.6986
55.6958
55.693
55.6902
55.6875
55.6847
55.6819
55.6792
55.6764
55.6736
55.6709
55.6681
55.6653
55.6626
55.6598
55.6571
55.6543
55.6515
55.6488
55.646
55.6432
55.6405
55.6377
55.6349
55.6322
55.6294
55.6267
55.6239
55.6211
55.6184
55.6156
55.6129
55.6101
55.6074
55.6046
55.6018
55.5991
55.5963
55.5936
55.5908
55.5881
55.5853
55.5826
55.5798
55.5771
55.5743
55.5715
55.5688
55.566
55.5633
55.5605
55.5578
55.555
55.5523
55.5495
55.5468
55.544
55.5413
55.5385
55.5358
55.5331
55.5303
55.5276
55.5248
55.5221
55.5193
55.5166
55.5138
55.5111
55.5083
55.5056
55.5029
55.5001
55.4974
55.4946
55.4919
55.4891
55.4864
55.4837
55.4809
55.4782
55.4754
55.4727
55.47
55.4672
55.4645
55.4618
55.459
55.4563
55.4535
55.4508
55.4481
55.4453
55.4426
55.4399
55.4371
55.4344
55.4317
55.4289
55.4262
55.4235
55.4207
55.418
55.4153
55.4126
55.4098
55.4071
55.4044
55.4016
55.3989
55.3962
55.3935
55.3907
55.388
55.3853
55.3825
55.3798
55.3771
55.3744
55.3716
55.3689
55.3662
55.3635
55.3607
55.358
55.3553
55.3526
55.3499
55.3471
55.3444
55.3417
55.339
55.3363
55.3335
55.3308
55.3281
55.3254
55.3227
55.3199
55.3172
55.3145
55.3118
55.3091
55.3064
55.3036
55.3009
55.2982
55.2955
55.2928
55.2901
55.2874
55.2847
55.2819
55.2792
55.2765
55.2738
55.2711
55.2684
55.2657
55.263
55.2603
55.2575
55.2548
55.2521
55.2494
55.2467
55.244
55.2413
55.2386
55.2359
55.2332
55.2305
55.2278
55.2251
55.2224
55.2197
55.217
55.2143
55.2116
55.2089
55.2062
55.2035
55.2008
55.1981
55.1954
55.1927
55.19
55.1873
55.1846
55.1819
55.1792
55.1765
55.1738
55.1711
55.1684
55.1657
55.163
55.1603
55.1576
55.1549
55.1522
55.1495
55.1468
55.1441
55.1414
55.1387
55.136
55.1334
55.1307
55.128
55.1253
55.1226
55.1199
55.1172
55.1145
55.1118
55.1092
55.1065
55.1038
55.1011
55.0984
55.0957
55.093
55.0903
55.0877
55.085
55.0823
55.0796
55.0769
55.0742
55.0716
55.0689
55.0662
55.0635
55.0608
55.0582
55.0555
55.0528
55.0501
55.0474
55.0448
55.0421
55.0394
55.0367
55.034
55.0314
55.0287
55.026
55.0233
55.0207
55.018
55.0153
55.0126
55.01
55.0073
55.0046
55.0019
54.9993
54.9966
54.9939
54.9913
54.9886
54.9859
54.9832
54.9806
54.9779
54.9752
54.9726
54.9699
54.9672
54.9646
54.9619
54.9592
54.9566
54.9539
54.9512
54.9486
54.9459
54.9432
54.9406
54.9379
54.9352
54.9326
54.9299
54.9273
54.9246
54.9219
54.9193
54.9166
54.9139
54.9113
54.9086
54.906
54.9033
54.9007
54.898
54.8953
54.8927
54.89
54.8874
54.8847
54.8821
54.8794
54.8767
54.8741
54.8714
54.8688
54.8661
54.8635
54.8608
54.8582
54.8555
54.8529
54.8502
54.8476
54.8449
54.8423
54.8396
54.837
54.8343
54.8317
54.829
54.8264
54.8237
54.8211
54.8184
54.8158
54.8131
54.8105
54.8078
54.8052
54.8025
54.7999
54.7973
54.7946
54.792
54.7893
54.7867
54.784
54.7814
54.7788
54.7761
54.7735
54.7708
54.7682
54.7656
54.7629
54.7603
54.7576
54.755
54.7524
54.7497
54.7471
54.7445
54.7418
54.7392
54.7365
54.7339
54.7313
54.7286
54.726
54.7234
54.7207
54.7181
54.7155
54.7128
54.7102
54.7076
54.705
54.7023
54.6997
54.6971
54.6944
54.6918
54.6892
54.6865
54.6839
54.6813
54.6787
54.676
54.6734
54.6708
54.6682
54.6655
54.6629
54.6603
54.6577
54.655
54.6524
54.6498
54.6472
54.6445
54.6419
54.6393
54.6367
54.6341
54.6314
54.6288
54.6262
54.6236
54.621
54.6183
54.6157
54.6131
54.6105
54.6079
54.6053
54.6026
54.6
54.5974
54.5948
54.5922
54.5896
54.5869
54.5843
54.5817
54.5791
54.5765
54.5739
54.5713
54.5687
54.566
54.5634
54.5608
54.5582
54.5556
54.553
54.5504
54.5478
54.5452
54.5426
54.54
54.5373
54.5347
54.5321
54.5295
54.5269
54.5243
54.5217
54.5191
54.5165
54.5139
54.5113
54.5087
54.5061
54.5035
54.5009
54.4983
54.4957
54.4931
54.4905
54.4879
54.4853
54.4827
54.4801
54.4775
54.4749
54.4723
54.4697
54.4671
54.4645
54.4619
54.4593
54.4567
54.4541
54.4515
54.4489
54.4463
54.4437
54.4411
54.4386
54.436
54.4334
54.4308
54.4282
54.4256
54.423
54.4204
54.4178
54.4152
54.4126
54.4101
54.4075
54.4049
54.4023
54.3997
54.3971
54.3945
54.3919
54.3894
54.3868
54.3842
54.3816
54.379
54.3764
54.3738
54.3713
54.3687
54.3661
54.3635
54.3609
54.3584
54.3558
54.3532
54.3506
54.348
54.3455
54.3429
54.3403
54.3377
54.3351
54.3326
54.33
54.3274
54.3248
54.3222
54.3197
54.3171
54.3145
54.3119
54.3094
54.3068
54.3042
54.3017
54.2991
54.2965
54.2939
54.2914
54.2888
54.2862
54.2836
54.2811
54.2785
54.2759
54.2734
54.2708
54.2682
54.2657
54.2631
54.2605
54.258
54.2554
54.2528
54.2503
54.2477
54.2451
54.2426
54.24
54.2374
54.2349
54.2323
54.2297
54.2272
54.2246
54.2221
54.2195
54.2169
54.2144
54.2118
54.2093
54.2067
54.2041
54.2016
54.199
54.1965
54.1939
54.1913
54.1888
54.1862
54.1837
54.1811
54.1786
54.176
54.1734
54.1709
54.1683
54.1658
54.1632
54.1607
54.1581
54.1556
54.153
54.1505
54.1479
54.1454
54.1428
54.1403
54.1377
54.1352
54.1326
54.1301
54.1275
54.125
54.1224
54.1199
54.1173
54.1148
54.1122
54.1097
54.1071
54.1046
54.1021
54.0995
54.097
54.0944
54.0919
54.0893
54.0868
54.0843
54.0817
54.0792
54.0766
54.0741
54.0715
54.069
54.0665
54.0639
54.0614
54.0589
54.0563
54.0538
54.0512
54.0487
54.0462
54.0436
54.0411
54.0386
54.036
54.0335
54.031
54.0284
54.0259
54.0234
54.0208
54.0183
54.0158
54.0132
54.0107
54.0082
54.0056
54.0031
54.0006
53.998
53.9955
53.993
53.9905
53.9879
53.9854
53.9829
53.9803
53.9778
53.9753
53.9728
53.9702
53.9677
53.9652
53.9627
53.9601
53.9576
53.9551
53.9526
53.95
53.9475
53.945
53.9425
53.94
53.9374
53.9349
53.9324
53.9299
53.9274
53.9248
53.9223
53.9198
53.9173
53.9148
53.9122
53.9097
53.9072
53.9047
53.9022
53.8997
53.8971
53.8946
53.8921
53.8896
53.8871
53.8846
53.8821
53.8796
53.877
53.8745
53.872
53.8695
53.867
53.8645
53.862
53.8595
53.857
53.8544
53.8519
53.8494
53.8469
53.8444
53.8419
53.8394
53.8369
53.8344
53.8319
53.8294
53.8269
53.8244
53.8219
53.8194
53.8169
53.8144
53.8118
53.8093
53.8068
53.8043
53.8018
53.7993
53.7968
53.7943
53.7918
53.7893
53.7868
53.7843
53.7818
53.7793
53.7768
53.7744
53.7719
53.7694
53.7669
53.7644
53.7619
53.7594
53.7569
53.7544
53.7519
53.7494
53.7469
53.7444
53.7419
53.7394
53.7369
53.7344
53.732
53.7295
53.727
53.7245
53.722
53.7195
53.717
53.7145
53.712
53.7095
53.7071
53.7046
53.7021
53.6996
53.6971
53.6946
53.6921
53.6897
53.6872
53.6847
53.6822
53.6797
53.6772
53.6748
53.6723
53.6698
53.6673
53.6648
53.6623
53.6599
53.6574
53.6549
53.6524
53.6499
53.6475
53.645
53.6425
53.64
53.6376
53.6351
53.6326
53.6301
53.6277
53.6252
53.6227
53.6202
53.6178
53.6153
53.6128
53.6103
53.6079
53.6054
53.6029
53.6004
53.598
53.5955
53.593
53.5906
53.5881
53.5856
53.5831
53.5807
53.5782
53.5757
53.5733
53.5708
53.5683
53.5659
53.5634
53.5609
53.5585
53.556
53.5535
53.5511
53.5486
53.5461
53.5437
53.5412
53.5388
53.5363
53.5338
53.5314
53.5289
53.5265
53.524
53.5215
53.5191
53.5166
53.5141
53.5117
53.5092
53.5068
53.5043
53.5019
53.4994
53.4969
53.4945
53.492
53.4896
53.4871
53.4847
53.4822
53.4798
53.4773
53.4748
53.4724
53.4699
53.4675
53.465
53.4626
53.4601
53.4577
53.4552
53.4528
53.4503
53.4479
53.4454
53.443
53.4405
53.4381
53.4356
53.4332
53.4307
53.4283
53.4259
53.4234
53.421
53.4185
53.4161
53.4136
53.4112
53.4087
53.4063
53.4039
53.4014
53.399
53.3965
53.3941
53.3916
53.3892
53.3868
53.3843
53.3819
53.3794
53.377
53.3746
53.3721
53.3697
53.3672
53.3648
53.3624
53.3599
53.3575
53.3551
53.3526
53.3502
53.3478
53.3453
53.3429
53.3405
53.338
53.3356
53.3332
53.3307
53.3283
53.3259
53.3234
53.321
53.3186
53.3161
53.3137
53.3113
53.3089
53.3064
53.304
53.3016
53.2991
53.2967
53.2943
53.2919
53.2894
53.287
53.2846
53.2822
53.2797
53.2773
53.2749
53.2725
53.27
53.2676
53.2652
53.2628
53.2603
53.2579
53.2555
53.2531
53.2507
53.2482
53.2458
53.2434
53.241
53.2386
53.2361
53.2337
53.2313
53.2289
53.2265
53.2241
53.2216
53.2192
53.2168
53.2144
53.212
53.2096
53.2072
53.2047
53.2023
53.1999
53.1975
53.1951
53.1927
53.1903
53.1879
53.1854
53.183
53.1806
53.1782
53.1758
53.1734
53.171
53.1686
53.1662
53.1638
53.1614
53.1589
53.1565
53.1541
53.1517
53.1493
53.1469
53.1445
53.1421
53.1397
53.1373
53.1349
53.1325
53.1301
53.1277
53.1253
53.1229
53.1205
53.1181
53.1157
53.1133
53.1109
53.1085
53.1061
53.1037
53.1013
53.0989
53.0965
53.0941
53.0917
53.0893
53.0869
53.0845
53.0821
53.0797
53.0773
53.0749
53.0725
53.0701
53.0677
53.0654
53.063
53.0606
53.0582
53.0558
53.0534
53.051
53.0486
53.0462
53.0438
53.0414
53.0391
53.0367
53.0343
53.0319
53.0295
53.0271
53.0247
53.0223
53.0199
53.0176
53.0152
53.0128
53.0104
53.008
53.0056
53.0033
53.0009
52.9985
52.9961
52.9937
52.9913
52.989
52.9866
52.9842
52.9818
52.9794
52.9771
52.9747
52.9723
52.9699
52.9675
52.9652
52.9628
52.9604
52.958
52.9557
52.9533
52.9509
52.9485
52.9462
52.9438
52.9414
52.939
52.9367
52.9343
52.9319
52.9295
52.9272
52.9248
52.9224
52.92
52.9177
52.9153
52.9129
52.9106
52.9082
52.9058
52.9035
52.9011
52.8987
52.8964
52.894
52.8916
52.8892
52.8869
52.8845
52.8822
52.8798
52.8774
52.8751
52.8727
52.8703
52.868
52.8656
52.8632
52.8609
52.8585
52.8562
52.8538
52.8514
52.8491
52.8467
52.8443
52.842
52.8396
52.8373
52.8349
52.8326
52.8302
52.8278
52.8255
52.8231
52.8208
52.8184
52.8161
52.8137
52.8113
52.809
52.8066
52.8043
52.8019
52.7996
52.7972
52.7949
52.7925
52.7902
52.7878
52.7855
52.7831
52.7808
52.7784
52.7761
52.7737
52.7714
52.769
52.7667
52.7643
52.762
52.7596
52.7573
52.7549
52.7526
52.7502
52.7479
52.7455
52.7432
52.7409
52.7385
52.7362
52.7338
52.7315
52.7291
52.7268
52.7244
52.7221
52.7198
52.7174
52.7151
52.7127
52.7104
52.7081
52.7057
52.7034
52.701
52.6987
52.6964
52.694
52.6917
52.6894
52.687
52.6847
52.6824
52.68
52.6777
52.6753
52.673
52.6707
52.6683
52.666
52.6637
52.6613
52.659
52.6567
52.6544
52.652
52.6497
52.6474
52.645
52.6427
52.6404
52.638
52.6357
52.6334
52.6311
52.6287
52.6264
52.6241
52.6217
52.6194
52.6171
52.6148
52.6124
52.6101
52.6078
52.6055
52.6031
52.6008
52.5985
52.5962
52.5939
52.5915
52.5892
52.5869
52.5846
52.5822
52.5799
52.5776
52.5753
52.573
52.5706
52.5683
52.566
52.5637
52.5614
52.5591
52.5567
52.5544
52.5521
52.5498
52.5475
52.5452
52.5428
52.5405
52.5382
52.5359
52.5336
52.5313
52.529
52.5267
52.5243
52.522
52.5197
52.5174
52.5151
52.5128
52.5105
52.5082
52.5059
52.5036
52.5012
52.4989
52.4966
52.4943
52.492
52.4897
52.4874
52.4851
52.4828
52.4805
52.4782
52.4759
52.4736
52.4713
52.469
52.4667
52.4644
52.4621
52.4598
52.4575
52.4551
52.4528
52.4505
52.4482
52.4459
52.4436
52.4413
52.439
52.4368
52.4345
52.4322
52.4299
52.4276
52.4253
52.423
52.4207
52.4184
52.4161
52.4138
52.4115
52.4092
52.4069
52.4046
52.4023
52.4
52.3977
52.3954
52.3931
52.3909
52.3886
52.3863
52.384
52.3817
52.3794
52.3771
52.3748
52.3725
52.3702
52.368
52.3657
52.3634
52.3611
52.3588
52.3565
52.3542
52.3519
52.3497
52.3474
52.3451
52.3428
52.3405
52.3382
52.336
52.3337
52.3314
52.3291
52.3268
52.3245
52.3223
52.32
52.3177
52.3154
52.3131
52.3109
52.3086
52.3063
52.304
52.3017
52.2995
52.2972
52.2949
52.2926
52.2904
52.2881
52.2858
52.2835
52.2813
52.279
52.2767
52.2744
52.2722
52.2699
52.2676
52.2653
52.2631
52.2608
52.2585
52.2563
52.254
52.2517
52.2494
52.2472
52.2449
52.2426
52.2404
52.2381
52.2358
52.2336
52.2313
52.229
52.2268
52.2245
52.2222
52.22
52.2177
52.2154
52.2132
52.2109
52.2086
52.2064
52.2041
52.2019
52.1996
52.1973
52.1951
52.1928
52.1905
52.1883
52.186
52.1838
52.1815
52.1792
52.177
52.1747
52.1725
52.1702
52.168
52.1657
52.1634
52.1612
52.1589
52.1567
52.1544
52.1522
52.1499
52.1477
52.1454
52.1431
52.1409
52.1386
52.1364
52.1341
52.1319
52.1296
52.1274
52.1251
52.1229
52.1206
52.1184
52.1161
52.1139
52.1116
52.1094
52.1071
52.1049
52.1026
52.1004
52.0981
52.0959
52.0937
52.0914
52.0892
52.0869
52.0847
52.0824
52.0802
52.0779
52.0757
52.0735
52.0712
52.069
52.0667
52.0645
52.0622
52.06
52.0578
52.0555
52.0533
52.051
52.0488
52.0466
52.0443
52.0421
52.0398
52.0376
52.0354
52.0331
52.0309
52.0287
52.0264
52.0242
52.022
52.0197
52.0175
52.0153
52.013
52.0108
52.0086
52.0063
52.0041
52.0019
51.9996
51.9974
51.9952
51.9929
51.9907
51.9885
51.9862
51.984
51.9818
51.9796
51.9773
51.9751
51.9729
51.9706
51.9684
51.9662
51.964
51.9617
51.9595
51.9573
51.9551
51.9528
51.9506
51.9484
51.9462
51.9439
51.9417
51.9395
51.9373
51.9351
51.9328
51.9306
51.9284
51.9262
51.924
51.9217
51.9195
51.9173
51.9151
51.9129
51.9106
51.9084
51.9062
51.904
51.9018
51.8996
51.8973
51.8951
51.8929
51.8907
51.8885
51.8863
51.884
51.8818
51.8796
51.8774
51.8752
51.873
51.8708
51.8686
51.8664
51.8641
51.8619
51.8597
51.8575
51.8553
51.8531
51.8509
51.8487
51.8465
51.8443
51.8421
51.8398
51.8376
51.8354
51.8332
51.831
51.8288
51.8266
51.8244
51.8222
51.82
51.8178
51.8156
51.8134
51.8112
51.809
51.8068
51.8046
51.8024
51.8002
51.798
51.7958
51.7936
51.7914
51.7892
51.787
51.7848
51.7826
51.7804
51.7782
51.776
51.7738
51.7716
51.7694
51.7672
51.765
51.7628
51.7606
51.7584
51.7562
51.754
51.7518
51.7497
51.7475
51.7453
51.7431
51.7409
51.7387
51.7365
51.7343
51.7321
51.7299
51.7277
51.7256
51.7234
51.7212
51.719
51.7168
51.7146
51.7124
51.7102
51.7081
51.7059
51.7037
51.7015
51.6993
51.6971
51.6949
51.6928
51.6906
51.6884
51.6862
51.684
51.6818
51.6797
51.6775
51.6753
51.6731
51.6709
51.6688
51.6666
51.6644
51.6622
51.66
51.6579
51.6557
51.6535
51.6513
51.6492
51.647
51.6448
51.6426
51.6404
51.6383
51.6361
51.6339
51.6317
51.6296
51.6274
51.6252
51.6231
51.6209
51.6187
51.6165
51.6144
51.6122
51.61
51.6078
51.6057
51.6035
51.6013
51.5992
51.597
51.5948
51.5927
51.5905
51.5883
51.5862
51.584
51.5818
51.5797
51.5775
51.5753
51.5732
51.571
51.5688
51.5667
51.5645
51.5623
51.5602
51.558
51.5559
51.5537
51.5515
51.5494
51.5472
51.545
51.5429
51.5407
51.5386
51.5364
51.5342
51.5321
51.5299
51.5278
51.5256
51.5235
51.5213
51.5191
51.517
51.5148
51.5127
51.5105
51.5084
51.5062
51.5041
51.5019
51.4997
51.4976
51.4954
51.4933
51.4911
51.489
51.4868
51.4847
51.4825
51.4804
51.4782
51.4761
51.4739
51.4718
51.4696
51.4675
51.4653
51.4632
51.461
51.4589
51.4567
51.4546
51.4524
51.4503
51.4482
51.446
51.4439
51.4417
51.4396
51.4374
51.4353
51.4331
51.431
51.4289
51.4267
51.4246
51.4224
51.4203
51.4182
51.416
51.4139
51.4117
51.4096
51.4075
51.4053
51.4032
51.401
51.3989
51.3968
51.3946
51.3925
51.3904
51.3882
51.3861
51.3839
51.3818
51.3797
51.3775
51.3754
51.3733
51.3711
51.369
51.3669
51.3647
51.3626
51.3605
51.3583
51.3562
51.3541
51.352
51.3498
51.3477
51.3456
51.3434
51.3413
51.3392
51.3371
51.3349
51.3328
51.3307
51.3285
51.3264
51.3243
51.3222
51.32
51.3179
51.3158
51.3137
51.3115
51.3094
51.3073
51.3052
51.3031
51.3009
51.2988
51.2967
51.2946
51.2924
51.2903
51.2882
51.2861
51.284
51.2818
51.2797
51.2776
51.2755
51.2734
51.2713
51.2691
51.267