# vtk DataFile Version 2.0
vtk output
ASCII
DATASET STRUCTURED_GRID
DIMENSIONS 50 10 30
POINTS 15000 float
0 0 0
1 0 0
2 0 0
3 0 0
4 0 0
5 0 0
6 0 0
7 0 0
8 0 0
9 0 0
10 0 0
11 0 0
12 0 0
13 0 0
14 0 0
15 0 0
16 0 0
17 0 0
18 0 0
19 0 0
20 0 0
21 0 0
22 0 0
23 0 0
24 0 0
25 0 0
26 0 0
27 0 0
28 0 0
29 0 0
30 0 0
31 0 0
32 0 0
33 0 0
34 0 0
35 0 0
36 0 0
37 0 0
38 0 0
39 0 0
40 0 0
41 0 0
42 0 0
43 0 0
44 0 0
45 0 0
46 0 0
47 0 0
48 0 0
49 0 0
0 1 0
1 1 0
2 1 0
3 1 0
4 1 0
5 1 0
6 1 0
7 1 0
8 1 0
9 1 0
10 1 0
11 1 0
12 1 0
13 1 0
14 1 0
15 1 0
16 1 0
17 1 0
18 1 0
19 1 0
20 1 0
21 1 0
22 1 0
23 1 0
24 1 0
25 1 0
26 1 0
27 1 0
28 1 0
29 1 0
30 1 0
31 1 0
32 1 0
33 1 0
34 1 0
35 1 0
36 1 0
37 1 0
38 1 0
39 1 0
40 1 0
41 1 0
42 1 0
43 1 0
44 1 0
45 1 0
46 1 0
47 1 0
48 1 0
49 1 0
0 2 0
1 2 0
2 2 0
3 2 0
4 2 0
5 2 0
6 2 0
7 2 0
8 2 0
9 2 0
10 2 0
11 2 0
12 2 0
13 2 0
14 2 0
15 2 0
16 2 0
17 2 0
18 2 0
19 2 0
20 2 0
21 2 0
22 2 0
23 2 0
24 2 0
25 2 0
26 2 0
27 2 0
28 2 0
29 2 0
30 2 0
31 2 0
32 2 0
33 2 0
34 2 0
35 2 0
36 2 0
37 2 0
38 2 0
39 2 0
40 2 0
41 2 0
42 2 0
43 2 0
44 2 0
45 2 0
46 2 0
47 2 0
48 2 0
49 2 0
0 3 0
1 3 0
2 3 0
3 3 0
4 3 0
5 3 0
6 3 0
7 3 0
8 3 0
9 3 0
10 3 0
11 3 0
12 3 0
13 3 0
14 3 0
15 3 0
16 3 0
17 3 0
18 3 0
19 3 0
20 3 0
21 3 0
22 3 0
23 3 0
24 3 0
25 3 0
26 3 0
27 3 0
28 3 0
29 3 0
30 3 0
31 3 0
32 3 0
33 3 0
34 3 0
35 3 0
36 3 0
37 3 0
38 3 0
39 3 0
40 3 0
41 3 0
42 3 0
43 3 0
44 3 0
45 3 0
46 3 0
47 3 0
48 3 0
49 3 0
0 4 0
1 4 0
2 4 0
3 4 0
4 4 0
5 4 0
6 4 0
7 4 0
8 4 0
9 4 0
10 4 0
11 4 0
12 4 0
13 4 0
14 4 0
15 4 0
16 4 0
17 4 0
18 4 0
19 4 0
20 4 0
21 4 0
22 4 0
23 4 0
24 4 0
25 4 0
26 4 0
27 4 0
28 4 0
29 4 0
30 4 0
31 4 0
32 4 0
33 4 0
34 4 0
35 4 0
36 4 0
37 4 0
38 4 0
39 4 0
40 4 0
41 4 0
42 4 0
43 4 0
44 4 0
45 4 0
46 4 0
47 4 0
48 4 0
49 4 0
0 5 0
1 5 0
2 5 0
3 5 0
4 5 0
5 5 0
6 5 0
7 5 0
8 5 0
9 5 0
10 5 0
11 5 0
12 5 0
13 5 0
14 5 0
15 5 0
16 5 0
17 5 0
18 5 0
19 5 0
20 5 0
21 5 0
22 5 0
23 5 0
24 5 0
25 5 0
26 5 0
27 5 0
28 5 0
29 5 0
30 5 0
31 5 0
32 5 0
33 5 0
34 5 0
35 5 0
36 5 0
37 5 0
38 5 0
39 5 0
40 5 0
41 5 0
42 5 0
43 5 0
44 5 0
45 5 0
46 5 0
47 5 0
48 5 0
49 5 0
0 6 0
1 6 0
2 6 0
3 6 0
4 6 0
5 6 0
6 6 0
7 6 0
8 6 0
9 6 0
10 6 0
11 6 0
12 6 0
13 6 0
14 6 0
15 6 0
16 6 0
17 6 0
18 6 0
19 6 0
20 6 0
21 6 0
22 6 0
23 6 0
24 6 0
25 6 0
26 6 0
27 6 0
28 6 0
29 6 0
30 6 0
31 6 0
32 6 0
33 6 0
34 6 0
35 6 0
36 6 0
37 6 0
38 6 0
39 6 0
40 6 0
41 6 0
42 6 0
43 6 0
44 6 0
45 6 0
46 6 0
47 6 0
48 6 0
49 6 0
0 7 0
1 7 0
2 7 0
3 7 0
4 7 0
5 7 0
6 7 0
7 7 0
8 7 0
9 7 0
10 7 0
11 7 0
12 7 0
13 7 0
14 7 0
15 7 0
16 7 0
17 7 0
18 7 0
19 7 0
20 7 0
21 7 0
22 7 0
23 7 0
24 7 0
25 7 0
26 7 0
27 7 0
28 7 0
29 7 0
30 7 0
31 7 0
32 7 0
33 7 0
34 7 0
35 7 0
36 7 0
37 7 0
38 7 0
39 7 0
40 7 0
41 7 0
42 7 0
43 7 0
44 7 0
45 7 0
46 7 0
47 7 0
48 7 0
49 7 0
0 8 0
1 8 0
2 8 0
3 8 0
4 8 0
5 8 0
6 8 0
7 8 0
8 8 0
9 8 0
10 8 0
11 8 0
12 8 0
13 8 0
14 8 0
15 8 0
16 8 0
17 8 0
18 8 0
19 8 0
20 8 0
21 8 0
22 8 0
23 8 0
24 8 0
25 8 0
26 8 0
27 8 0
28 8 0
29 8 0
30 8 0
31 8 0
32 8 0
33 8 0
34 8 0
35 8 0
36 8 0
37 8 0
38 8 0
39 8 0
40 8 0
41 8 0
42 8 0
43 8 0
44 8 0
45 8 0
46 8 0
47 8 0
48 8 0
49 8 0
0 9 0
1 9 0
2 9 0
3 9 0
4 9 0
5 9 0
6 9 0
7 9 0
8 9 0
9 9 0
10 9 0
11 9 0
12 9 0
13 9 0
14 9 0
15 9 0
16 9 0
17 9 0
18 9 0
19 9 0
20 9 0
21 9 0
22 9 0
23 9 0
24 9 0
25 9 0
26 9 0
27 9 0
28 9 0
29 9 0
30 9 0
31 9 0
32 9 0
33 9 0
34 9 0
35 9 0
36 9 0
37 9 0
38 9 0
39 9 0
40 9 0
41 9 0
42 9 0
43 9 0
44 9 0
45 9 0
46 9 0
47 9 0
48 9 0
49 9 0
0 0 1
1 0 1
2 0 1
3 0 1
4 0 1
5 0 1
6 0 1
7 0 1
8 0 1
9 0 1
10 0 1
11 0 1
12 0 1
13 0 1
14 0 1
15 0 1
16 0 1
17 0 1
18 0 1
19 0 1
20 0 1
21 0 1
22 0 1
23 0 1
24 0 1
25 0 1
26 0 1
27 0 1
28 0 1
29 0 1
30 0 1
31 0 1
32 0 1
33 0 1
34 0 1
35 0 1
36 0 1
37 0 1
38 0 1
39 0 1
40 0 1
41 0 1
42 0 1
43 0 1
44 0 1
45 0 1
46 0 1
47 0 1
48 0 1
49 0 1
0 1 1
1 1 1
2 1 1
3 1 1
4 1 1
5 1 1
6 1 1
7 1 1
8 1 1
9 1 1
10 1 1
11 1 1
12 1 1
13 1 1
14 1 1
15 1 1
16 1 1
17 1 1
18 1 1
19 1 1
20 1 1
21 1 1
22 1 1
23 1 1
24 1 1
25 1 1
26 1 1
27 1 1
28 1 1
29 1 1
30 1 1
31 1 1
32 1 1
33 1 1
34 1 1
35 1 1
36 1 1
37 1 1
38 1 1
39 1 1
40 1 1
41 1 1
42 1 1
43 1 1
44 1 1
45 1 1
46 1 1
47 1 1
48 1 1
49 1 1
0 2 1
1 2 1
2 2 1
3 2 1
4 2 1
5 2 1
6 2 1
7 2 1
8 2 1
9 2 1
10 2 1
11 2 1
12 2 1
13 2 1
14 2 1
15 2 1
16 2 1
17 2 1
18 2 1
19 2 1
20 2 1
21 2 1
22 2 1
23 2 1
24 2 1
25 2 1
26 2 1
27 2 1
28 2 1
29 2 1
30 2 1
31 2 1
32 2 1
33 2 1
34 2 1
35 2 1
36 2 1
37 2 1
38 2 1
39 2 1
40 2 1
41 2 1
42 2 1
43 2 1
44 2 1
45 2 1
46 2 1
47 2 1
48 2 1
49 2 1
0 3 1
1 3 1
2 3 1
3 3 1
4 3 1
5 3 1
6 3 1
7 3 1
8 3 1
9 3 1
10 3 1
11 3 1
12 3 1
13 3 1
14 3 1
15 3 1
16 3 1
17 3 1
18 3 1
19 3 1
20 3 1
21 3 1
22 3 1
23 3 1
24 3 1
25 3 1
26 3 1
27 3 1
28 3 1
29 3 1
30 3 1
31 3 1
32 3 1
33 3 1
34 3 1
35 3 1
36 3 1
37 3 1
38 3 1
39 3 1
40 3 1
41 3 1
42 3 1
43 3 1
44 3 1
45 3 1
46 3 1
47 3 1
48 3 1
49 3 1
0 4 1
1 4 1
2 4 1
3 4 1
4 4 1
5 4 1
6 4 1
7 4 1
8 4 1
9 4 1
10 4 1
11 4 1
12 4 1
13 4 1
14 4 1
15 4 1
16 4 1
17 4 1
18 4 1
19 4 1
20 4 1
21 4 1
22 4 1
23 4 1
24 4 1
25 4 1
26 4 1
27 4 1
28 4 1
29 4 1
30 4 1
31 4 1
32 4 1
33 4 1
34 4 1
35 4 1
36 4 1
37 4 1
38 4 1
39 4 1
40 4 1
41 4 1
42 4 1
43 4 1
44 4 1
45 4 1
46 4 1
47 4 1
48 4 1
49 4 1
0 5 1
1 5 1
2 5 1
3 5 1
4 5 1
5 5 1
6 5 1
7 5 1
8 5 1
9 5 1
10 5 1
11 5 1
12 5 1
13 5 1
14 5 1
15 5 1
16 5 1
17 5 1
18 5 1
19 5 1
20 5 1
21 5 1
22 5 1
23 5 1
24 5 1
25 5 1
26 5 1
27 5 1
28 5 1
29 5 1
30 5 1
31 5 1
32 5 1
33 5 1
34 5 1
35 5 1
36 5 1
37 5 1
38 5 1
39 5 1
40 5 1
41 5 1
42 5 1
43 5 1
44 5 1
45 5 1
46 5 1
47 5 1
48 5 1
49 5 1
0 6 1
1 6 1
2 6 1
3 6 1
4 6 1
5 6 1
6 6 1
7 6 1
8 6 1
9 6 1
10 6 1
11 6 1
12 6 1
13 6 1
14 6 1
15 6 1
16 6 1
17 6 1
18 6 1
19 6 1
20 6 1
21 6 1
22 6 1
23 6 1
24 6 1
25 6 1
26 6 1
27 6 1
28 6 1
29 6 1
30 6 1
31 6 1
32 6 1
33 6 1
34 6 1
35 6 1
36 6 1
37 6 1
38 6 1
39 6 1
40 6 1
41 6 1
42 6 1
43 6 1
44 6 1
45 6 1
46 6 1
47 6 1
48 6 1
49 6 1
0 7 1
1 7 1
2 7 1
3 7 1
4 7 1
5 7 1
6 7 1
7 7 1
8 7 1
9 7 1
10 7 1
11 7 1
12 7 1
13 7 1
14 7 1
15 7 1
16 7 1
17 7 1
18 7 1
19 7 1
20 7 1
21 7 1
22 7 1
23 7 1
24 7 1
25 7 1
26 7 1
27 7 1
28 7 1
29 7 1
30 7 1
31 7 1
32 7 1
33 7 1
34 7 1
35 7 1
36 7 1
37 7 1
38 7 1
39 7 1
40 7 1
41 7 1
42 7 1
43 7 1
44 7 1
45 7 1
46 7 1
47 7 1
48 7 1
49 7 1
0 8 1
1 8 1
2 8 1
3 8 1
4 8 1
5 8 1
6 8 1
7 8 1
8 8 1
9 8 1
10 8 1
11 8 1
12 8 1
13 8 1
14 8 1
15 8 1
16 8 1
17 8 1
18 8 1
19 8 1
20 8 1
21 8 1
22 8 1
23 8 1
24 8 1
25 8 1
26 8 1
27 8 1
28 8 1
29 8 1
30 8 1
31 8 1
32 8 1
33 8 1
34 8 1
35 8 1
36 8 1
37 8 1
38 8 1
39 8 1
40 8 1
41 8 1
42 8 1
43 8 1
44 8 1
45 8 1
46 8 1
47 8 1
48 8 1
49 8 1
0 9 1
1 9 1
2 9 1
3 9 1
4 9 1
5 9 1
6 9 1
7 9 1
8 9 1
9 9 1
10 9 1
11 9 1
12 9 1
13 9 1
14 9 1
15 9 1
16 9 1
17 9 1
18 9 1
19 9 1
20 9 1
21 9 1
22 9 1
23 9 1
24 9 1
25 9 1
26 9 1
27 9 1
28 9 1
29 9 1
30 9 1
31 9 1
32 9 1
33 9 1
34 9 1
35 9 1
36 9 1
37 9 1
38 9 1
39 9 1
40 9 1
41 9 1
42 9 1
43 9 1
44 9 1
45 9 1
46 9 1
47 9 1
48 9 1
49 9 1
0 0 2
1 0 2
2 0 2
3 0 2
4 0 2
5 0 2
6 0 2
7 0 2
8 0 2
9 0 2
10 0 2
11 0 2
12 0 2
13 0 2
14 0 2
15 0 2
16 0 2
17 0 2
18 0 2
19 0 2
20 0 2
21 0 2
22 0 2
23 0 2
24 0 2
25 0 2
26 0 2
27 0 2
28 0 2
29 0 2
30 0 2
31 0 2
32 0 2
33 0 2
34 0 2
35 0 2
36 0 2
37 0 2
38 0 2
39 0 2
40 0 2
41 0 2
42 0 2
43 0 2
44 0 2
45 0 2
46 0 2
47 0 2
48 0 2
49 0 2
0 1 2
1 1 2
2 1 2
3 1 2
4 1 2
5 1 2
6 1 2
7 1 2
8 1 2
9 1 2
10 1 2
11 1 2
12 1 2
13 1 2
14 1 2
15 1 2
16 1 2
17 1 2
18 1 2
19 1 2
20 1 2
21 1 2
22 1 2
23 1 2
24 1 2
25 1 2
26 1 2
27 1 2
28 1 2
29 1 2
30 1 2
31 1 2
32 1 2
33 1 2
34 1 2
35 1 2
36 1 2
37 1 2
38 1 2
39 1 2
40 1 2
41 1 2
42 1 2
43 1 2
44 1 2
45 1 2
46 1 2
47 1 2
48 1 2
49 1 2
0 2 2
1 2 2
2 2 2
3 2 2
4 2 2
5 2 2
6 2 2
7 2 2
8 2 2
9 2 2
10 2 2
11 2 2
12 2 2
13 2 2
14 2 2
15 2 2
16 2 2
17 2 2
18 2 2
19 2 2
20 2 2
21 2 2
22 2 2
23 2 2
24 2 2
25 2 2
26 2 2
27 2 2
28 2 2
29 2 2
30 2 2
31 2 2
32 2 2
33 2 2
34 2 2
35 2 2
36 2 2
37 2 2
38 2 2
39 2 2
40 2 2
41 2 2
42 2 2
43 2 2
44 2 2
45 2 2
46 2 2
47 2 2
48 2 2
49 2 2
0 3 2
1 3 2
2 3 2
3 3 2
4 3 2
5 3 2
6 3 2
7 3 2
8 3 2
9 3 2
10 3 2
11 3 2
12 3 2
13 3 2
14 3 2
15 3 2
16 3 2
17 3 2
18 3 2
19 3 2
20 3 2
21 3 2
22 3 2
23 3 2
24 3 2
25 3 2
26 3 2
27 3 2
28 3 2
29 3 2
30 3 2
31 3 2
32 3 2
33 3 2
34 3 2
35 3 2
36 3 2
37 3 2
38 3 2
39 3 2
40 3 2
41 3 2
42 3 2
43 3 2
44 3 2
45 3 2
46 3 2
47 3 2
48 3 2
49 3 2
0 4 2
1 4 2
2 4 2
3 4 2
4 4 2
5 4 2
6 4 2
7 4 2
8 4 2
9 4 2
10 4 2
11 4 2
12 4 2
13 4 2
14 4 2
15 4 2
16 4 2
17 4 2
18 4 2
19 4 2
20 4 2
21 4 2
22 4 2
23 4 2
24 4 2
25 4 2
26 4 2
27 4 2
28 4 2
29 4 2
30 4 2
31 4 2
32 4 2
33 4 2
34 4 2
35 4 2
36 4 2
37 4 2
38 4 2
39 4 2
40 4 2
41 4 2
42 4 2
43 4 2
44 4 2
45 4 2
46 4 2
47 4 2
48 4 2
49 4 2
0 5 2
1 5 2
2 5 2
3 5 2
4 5 2
5 5 2
6 5 2
7 5 2
8 5 2
9 5 2
10 5 2
11 5 2
12 5 2
13 5 2
14 5 2
15 5 2
16 5 2
17 5 2
18 5 2
19 5 2
20 5 2
21 5 2
22 5 2
23 5 2
24 5 2
25 5 2
26 5 2
27 5 2
28 5 2
29 5 2
30 5 2
31 5 2
32 5 2
33 5 2
34 5 2
35 5 2
36 5 2
37 5 2
38 5 2
39 5 2
40 5 2
41 5 2
42 5 2
43 5 2
44 5 2
45 5 2
46 5 2
47 5 2
48 5 2
49 5 2
0 6 2
1 6 2
2 6 2
3 6 2
4 6 2
5 6 2
6 6 2
7 6 2
8 6 2
9 6 2
10 6 2
11 6 2
12 6 2
13 6 2
14 6 2
15 6 2
16 6 2
17 6 2
18 6 2
19 6 2
20 6 2
21 6 2
22 6 2
23 6 2
24 6 2
25 6 2
26 6 2
27 6 2
28 6 2
29 6 2
30 6 2
31 6 2
32 6 2
33 6 2
34 6 2
35 6 2
36 6 2
37 6 2
38 6 2
39 6 2
40 6 2
41 6 2
42 6 2
43 6 2
44 6 2
45 6 2
46 6 2
47 6 2
48 6 2
49 6 2
0 7 2
1 7 2
2 7 2
3 7 2
4 7 2
5 7 2
6 7 2
7 7 2
8 7 2
9 7 2
10 7 2
11 7 2
12 7 2
13 7 2
14 7 2
15 7 2
16 7 2
17 7 2
18 7 2
19 7 2
20 7 2
21 7 2
22 7 2
23 7 2
24 7 2
25 7 2
26 7 2
27 7 2
28 7 2
29 7 2
30 7 2
31 7 2
32 7 2
33 7 2
34 7 2
35 7 2
36 7 2
37 7 2
38 7 2
39 7 2
40 7 2
41 7 2
42 7 2
43 7 2
44 7 2
45 7 2
46 7 2
47 7 2
48 7 2
49 7 2
0 8 2
1 8 2
2 8 2
3 8 2
4 8 2
5 8 2
6 8 2
7 8 2
8 8 2
9 8 2
10 8 2
11 8 2
12 8 2
13 8 2
14 8 2
15 8 2
16 8 2
17 8 2
18 8 2
19 8 2
20 8 2
21 8 2
22 8 2
23 8 2
24 8 2
25 8 2
26 8 2
27 8 2
28 8 2
29 8 2
30 8 2
31 8 2
32 8 2
33 8 2
34 8 2
35 8 2
36 8 2
37 8 2
38 8 2
39 8 2
40 8 2
41 8 2
42 8 2
43 8 2
44 8 2
45 8 2
46 8 2
47 8 2
48 8 2
49 8 2
0 9 2
1 9 2
2 9 2
3 9 2
4 9 2
[...]
POINT_DATA 15000
SCALARS sol292 float
LOOKUP_TABLE default
58.3925
58.3894
58.3864
58.3833
58.3803
58.3773
58.3742
58.3712
58.3681
58.3651
58.362
58.359
58.3559
58.3529
58.3498
58.3468
58.3438
58.3407
58.3377
58.3346
58.3316
58.3286
58.3255
58.3225
58.3194
58.3164
58.3134
58.3103
58.3073
58.3042
58.3012
58.2982
58.2951
58.2921
58.2891
58.286
58.283
58.28
58.2769
58.2739
58.2709
58.2678
58.2648
58.2618
58.2587
58.2557
58.2527
58.2496
58.2466
58.2436
58.2405
58.2375
58.2345
58.2315
58.2284
58.2254
58.2224
58.2194
58.2163
58.2133
58.2103
58.2073
58.2042
58.2012
58.1982
58.1952
58.1921
58.1891
58.1861
58.1831
58.1801
58.177
58.174
58.171
58.168
58.165
58.1619
58.1589
58.1559
58.1529
58.1499
58.1468
58.1438
58.1408
58.1378
58.1348
58.1318
58.1288
58.1257
58.1227
58.1197
58.1167
58.1137
58.1107
58.1077
58.1047
58.1017
58.0986
58.0956
58.0926
58.0896
58.0866
58.0836
58.0806
58.0776
58.0746
58.0716
58.0686
58.0656
58.0626
58.0595
58.0565
58.0535
58.0505
58.0475
58.0445
58.0415
58.0385
58.0355
58.0325
58.0295
58.0265
58.0235
58.0205
58.0175
58.0145
58.0115
58.0085
58.0055
58.0025
57.9995
57.9965
57.9935
57.9905
57.9876
57.9846
57.9816
57.9786
57.9756
57.9726
57.9696
57.9666
57.9636
57.9606
57.9576
57.9546
57.9516
57.9487
57.9457
57.9427
57.9397
57.9367
57.9337
57.9307
57.9277
57.9247
57.9218
57.9188
57.9158
57.9128
57.9098
57.9068
57.9039
57.9009
57.8979
57.8949
57.8919
57.8889
57.886
57.883
57.88
57.877
57.874
57.8711
57.8681
57.8651
57.8621
57.8591
57.8562
57.8532
57.8502
57.8472
57.8443
57.8413
57.8383
57.8353
57.8324
57.8294
57.8264
57.8234
57.8205
57.8175
57.8145
57.8115
57.8086
57.8056
57.8026
57.7997
57.7967
57.7937
57.7908
57.7878
57.7848
57.7819
57.7789
57.7759
57.773
57.77
57.767
57.7641
57.7611
57.7581
57.7552
57.7522
57.7492
57.7463
57.7433
57.7403
57.7374
57.7344
57.7315
57.7285
57.7255
57.7226
57.7196
57.7167
57.7137
57.7107
57.7078
57.7048
57.7019
57.6989
57.696
57.693
57.6901
57.6871
57.6841
57.6812
57.6782
57.6753
57.6723
57.6694
57.6664
57.6635
57.6605
57.6576
57.6546
57.6517
57.6487
57.6458
57.6428
57.6399
57.6369
57.634
57.631
57.6281
57.6251
57.6222
57.6192
57.6163
57.6134
57.6104
57.6075
57.6045
57.6016
57.5986
57.5957
57.5928
57.5898
57.5869
57.5839
57.581
57.578
57.5751
57.5722
57.5692
57.5663
57.5634
57.5604
57.5575
57.5545
57.5516
57.5487
57.5457
57.5428
57.5399
57.5369
57.534
57.5311
57.5281
57.5252
57.5223
57.5193
57.5164
57.5135
57.5105
57.5076
57.5047
57.5017
57.4988
57.4959
57.493
57.49
57.4871
57.4842
57.4812
57.4783
57.4754
57.4725
57.4695
57.4666
57.4637
57.4608
57.4578
57.4549
57.452
57.4491
57.4462
57.4432
57.4403
57.4374
57.4345
57.4315
57.4286
57.4257
57.4228
57.4199
57.417
57.414
57.4111
57.4082
57.4053
57.4024
57.3994
57.3965
57.3936
57.3907
57.3878
57.3849
57.382
57.379
57.3761
57.3732
57.3703
57.3674
57.3645
57.3616
57.3587
57.3558
57.3528
57.3499
57.347
57.3441
57.3412
57.3383
57.3354
57.3325
57.3296
57.3267
57.3238
57.3209
57.318
57.3151
57.3122
57.3092
57.3063
57.3034
57.3005
57.2976
57.2947
57.2918
57.2889
57.286
57.2831
57.2802
57.2773
57.2744
57.2715
57.2686
57.2657
57.2628
57.2599
57.257
57.2542
57.2513
57.2484
57.2455
57.2426
57.2397
57.2368
57.2339
57.231
57.2281
57.2252
57.2223
57.2194
57.2165
57.2136
57.2108
57.2079
57.205
57.2021
57.1992
57.1963
57.1934
57.1905
57.1876
57.1848
57.1819
57.179
57.1761
57.1732
57.1703
57.1674
57.1646
57.1617
57.1588
57.1559
57.153
57.1501
57.1473
57.1444
57.1415
57.1386
57.1357
57.1329
57.13
57.1271
57.1242
57.1213
57.1185
57.1156
57.1127
57.1098
57.107
57.1041
57.1012
57.0983
57.0955
57.0926
57.0897
57.0868
57.084
57.0811
57.0782
57.0753
57.0725
57.0696
57.0667
57.0639
57.061
57.0581
57.0553
57.0524
57.0495
57.0466
57.0438
57.0409
57.038
57.0352
57.0323
57.0294
57.0266
57.0237
57.0209
57.018
57.0151
57.0123
57.0094
57.0065
57.0037
57.0008
56.998
56.9951
56.9922
56.9894
56.9865
56.9836
56.9808
56.9779
56.9751
56.9722
56.9694
56.9665
56.9636
56.9608
56.9579
56.9551
56.9522
56.9494
56.9465
56.9437
56.9408
56.938
56.9351
56.9322
56.9294
56.9265
56.9237
56.9208
56.918
56.9151
56.9123
56.9094
56.9066
56.9037
56.9009
56.898
56.8952
56.8924
56.8895
56.8867
56.8838
56.881
56.8781
56.8753
56.8724
56.8696
56.8667
56.8639
56.8611
56.8582
56.8554
56.8525
56.8497
56.8469
56.844
56.8412
56.8383
56.8355
56.8327
56.8298
56.827
56.8241
56.8213
56.8185
56.8156
56.8128
56.81
56.8071
56.8043
56.8015
56.7986
56.7958
56.793
56.7901
56.7873
56.7845
56.7816
56.7788
56.776
56.7731
56.7703
56.7675
56.7646
56.7618
56.759
56.7562
56.7533
56.7505
56.7477
56.7448
56.742
56.7392
56.7364
56.7335
56.7307
56.7279
56.7251
56.7222
56.7194
56.7166
56.7138
56.711
56.7081
56.7053
56.7025
56.6997
56.6968
56.694
56.6912
56.6884
56.6856
56.6828
56.6799
56.6771
56.6743
56.6715
56.6687
56.6658
56.663
56.6602
56.6574
56.6546
56.6518
56.649
56.6461
56.6433
56.6405
56.6377
56.6349
56.6321
56.6293
56.6265
56.6237
56.6208
56.618
56.6152
56.6124
56.6096
56.6068
56.604
56.6012
56.5984
56.5956
56.5928
56.59
56.5872
56.5844
56.5816
56.5787
56.5759
56.5731
56.5703
56.5675
56.5647
56.5619
56.5591
56.5563
56.5535
56.5507
56.5479
56.5451
56.5423
56.5395
56.5367
56.5339
56.5311
56.5283
56.5255
56.5227
56.52
56.5172
56.5144
56.5116
56.5088
56.506
56.5032
56.5004
56.4976
56.4948
56.492
56.4892
56.4864
56.4836
56.4809
56.4781
56.4753
56.4725
56.4697
56.4669
56.4641
56.4613
56.4585
56.4558
56.453
56.4502
56.4474
56.4446
56.4418
56.439
56.4363
56.4335
56.4307
56.4279
56.4251
56.4223
56.4196
56.4168
56.414
56.4112
56.4084
56.4057
56.4029
56.4001
56.3973
56.3945
56.3918
56.389
56.3862
56.3834
56.3806
56.3779
56.3751
56.3723
56.3695
56.3668
56.364
56.3612
56.3585
56.3557
56.3529
56.3501
56.3474
56.3446
56.3418
56.339
56.3363
56.3335
56.3307
56.328
56.3252
56.3224
56.3197
56.3169
56.3141
56.3114
56.3086
56.3058
56.3031
56.3003
56.2975
56.2948
56.292
56.2892
56.2865
56.2837
56.2809
56.2782
56.2754
56.2727
56.2699
56.2671
56.2644
56.2616
56.2589
56.2561
56.2533
56.2506
56.2478
56.2451
56.2423
56.2395
56.2368
56.234
56.2313
56.2285
56.2258
56.223
56.2203
56.2175
56.2148
56.212
56.2092
56.2065
56.2037
56.201
56.1982
56.1955
56.1927
56.19
56.1872
56.1845
56.1817
56.179
56.1762
56.1735
56.1707
56.168
56.1653
56.1625
56.1598
56.157
56.1543
56.1515
56.1488
56.146
56.1433
56.1405
56.1378
56.1351
56.1323
56.1296
56.1268
56.1241
56.1214
56.1186
56.1159
56.1131
56.1104
56.1077
56.1049
56.1022
56.0994
56.0967
56.094
56.0912
56.0885
56.0858
56.083
56.0803
56.0776
56.0748
56.0721
56.0694
56.0666
56.0639
56.0612
56.0584
56.0557
56.053
56.0502
56.0475
56.0448
56.042
56.0393
56.0366
56.0339
56.0311
56.0284
56.0257
56.0229
56.0202
56.0175
56.0148
56.012
56.0093
56.0066
56.0039
56.0011
55.9984
55.9957
55.993
55.9903
55.9875
55.9848
55.9821
55.9794
55.9766
55.9739
55.9712
55.9685
55.9658
55.963
55.9603
55.9576
55.9549
55.9522
55.9495
55.9467
55.944
55.9413
55.9386
55.9359
55.9332
55.9305
55.9277
55.925
55.9223
55.9196
55.9169
55.9142
55.9115
55.9088
55.906
55.9033
55.9006
55.8979
55.8952
55.8925
55.8898
55.8871
55.8844
55.8817
55.879
55.8763
55.8735
55.8708
55.8681
55.8654
55.8627
55.86
55.8573
55.8546
55.8519
55.8492
55.8465
55.8438
55.8411
55.8384
55.8357
55.833
55.8303
55.8276
55.8249
55.8222
55.8195
55.8168
55.8141
55.8114
55.8087
55.806
55.8033
55.8006
55.7979
55.7952
55.7925
55.7898
55.7872
55.7845
55.7818
55.7791
55.7764
55.7737
55.771
55.7683
55.7656
55.7629
55.7602
55.7575
55.7549
55.7522
55.7495
55.7468
55.7441
55.7414
55.7387
55.736
55.7334
55.7307
55.728
55.7253
55.7226
55.7199
55.7172
55.7146
55.7119
55.7092
55.7065
55.7038
55.7011
55.6985
55.6958
55.6931
55.6904
55.6877
55.6851
55.6824
55.6797
55.677
55.6743
55.6717
55.669
55.6663
55.6636
55.661
55.6583
55.6556
55.6529
55.6503
55.6476
55.6449
55.6422
55.6396
55.6369
55.6342
55.6315
55.6289
55.6262
55.6235
55.6209
55.6182
55.6155
55.6129
55.6102
55.6075
55.6048
55.6022
55.5995
55.5968
55.5942
55.5915
55.5888
55.5862
55.5835
55.5808
55.5782
55.5755
55.5729
55.5702
55.5675
55.5649
55.5622
55.5595
55.5569
55.5542
55.5516
55.5489
55.5462
55.5436
55.5409
55.5383
55.5356
55.5329
55.5303
55.5276
55.525
55.5223
55.5197
55.517
55.5143
55.5117
55.509
55.5064
55.5037
55.5011
55.4984
55.4958
55.4931
55.4905
55.4878
55.4852
55.4825
55.4799
55.4772
55.4746
55.4719
55.4693
55.4666
55.464
55.4613
55.4587
55.456
55.4534
55.4507
55.4481
55.4454
55.4428
55.4401
55.4375
55.4349
55.4322
55.4296
55.4269
55.4243
55.4216
55.419
55.4164
55.4137
55.4111
55.4084
55.4058
55.4031
55.4005
55.3979
55.3952
55.3926
55.39
55.3873
55.3847
55.382
55.3794
55.3768
55.3741
55.3715
55.3689
55.3662
55.3636
55.361
55.3583
55.3557
55.3531
55.3504
55.3478
55.3452
55.3425
55.3399
55.3373
55.3346
55.332
55.3294
55.3268
55.3241
55.3215
55.3189
55.3162
55.3136
55.311
55.3084
55.3057
55.3031
55.3005
55.2979
55.2952
55.2926
55.29
55.2874
55.2847
55.2821
55.2795
55.2769
55.2743
55.2716
55.269
55.2664
55.2638
55.2611
55.2585
55.2559
55.2533
55.2507
55.2481
55.2454
55.2428
55.2402
55.2376
55.235
55.2324
55.2297
55.2271
55.2245
55.2219
55.2193
55.2167
55.2141
55.2114
55.2088
55.2062
55.2036
55.201
55.1984
55.1958
55.1932
55.1906
55.1879
55.1853
55.1827
55.1801
55.1775
55.1749
55.1723
55.1697
55.1671
55.1645
55.1619
55.1593
55.1567
55.1541
55.1515
55.1489
55.1462
55.1436
55.141
55.1384
55.1358
55.1332
55.1306
55.128
55.1254
55.1228
55.1202
55.1176
55.115
55.1124
55.1098
55.1072
55.1046
55.102
55.0994
55.0969
55.0943
55.0917
55.0891
55.0865
55.0839
55.0813
55.0787
55.0761
55.0735
55.0709
55.0683
55.0657
55.0631
55.0605
55.058
55.0554
55.0528
55.0502
55.0476
55.045
55.0424
55.0398
55.0372
55.0347
55.0321
55.0295
55.0269
55.0243
55.0217
55.0191
55.0165
55.014
55.0114
55.0088
55.0062
55.0036
55.001
54.9985
54.9959
54.9933
54.9907
54.9881
54.9856
54.983
54.9804
54.9778
54.9752
54.9727
54.9701
54.9675
54.9649
54.9624
54.9598
54.9572
54.9546
54.952
54.9495
54.9469
54.9443
54.9417
54.9392
54.9366
54.934
54.9315
54.9289
54.9263
54.9237
54.9212
54.9186
54.916
54.9135
54.9109
54.9083
54.9057
54.9032
54.9006
54.898
54.8955
54.8929
54.8903
54.8878
54.8852
54.8826
54.8801
54.8775
54.8749
54.8724
54.8698
54.8673
54.8647
54.8621
54.8596
54.857
54.8544
54.8519
54.8493
54.8468
54.8442
54.8416
54.8391
54.8365
54.834
54.8314
54.8288
54.8263
54.8237
54.8212
54.8186
54.8161
54.8135
54.811
54.8084
54.8058
54.8033
54.8007
54.7982
54.7956
54.7931
54.7905
54.788
54.7854
54.7829
54.7803
54.7778
54.7752
54.7727
54.7701
54.7676
54.765
54.7625
54.7599
54.7574
54.7548
54.7523
54.7497
54.7472
54.7446
54.7421
54.7396
54.737
54.7345
54.7319
54.7294
54.7268
54.7243
54.7217
54.7192
54.7167
54.7141
54.7116
54.709
54.7065
54.704
54.7014
54.6989
54.6963
54.6938
54.6913
54.6887
54.6862
54.6837
54.6811
54.6786
54.676
54.6735
54.671
54.6684
54.6659
54.6634
54.6608
54.6583
54.6558
54.6532
54.6507
54.6482
54.6456
54.6431
54.6406
54.638
54.6355
54.633
54.6305
54.6279
54.6254
54.6229
54.6203
54.6178
54.6153
54.6128
54.6102
54.6077
54.6052
54.6027
54.6001
54.5976
54.5951
54.5926
54.59
54.5875
54.585
54.5825
54.5799
54.5774
54.5749
54.5724
54.5699
54.5673
54.5648
54.5623
54.5598
54.5573
54.5547
54.5522
54.5497
54.5472
54.5447
54.5422
54.5396
54.5371
54.5346
54.5321
54.5296
54.5271
54.5246
54.522
54.5195
54.517
54.5145
54.512
54.5095
54.507
54.5045
54.5019
54.4994
54.4969
54.4944
54.4919
54.4894
54.4869
54.4844
54.4819
54.4794
54.4769
54.4743
54.4718
54.4693
54.4668
54.4643
54.4618
54.4593
54.4568
54.4543
54.4518
54.4493
54.4468
54.4443
54.4418
54.4393
54.4368
54.4343
54.4318
54.4293
54.4268
54.4243
54.4218
54.4193
54.4168
54.4143
54.4118
54.4093
54.4068
54.4043
54.4018
54.3993
54.3968
54.3943
54.3918
54.3893
54.3868
54.3843
54.3819
54.3794
54.3769
54.3744
54.3719
54.3694
54.3669
54.3644
54.3619
54.3594
54.3569
54.3545
54.352
54.3495
54.347
54.3445
54.342
54.3395
54.337
54.3346
54.3321
54.3296
54.3271
54.3246
54.3221
54.3196
54.3172
54.3147
54.3122
54.3097
54.3072
54.3047
54.3023
54.2998
54.2973
54.2948
54.2923
54.2899
54.2874
54.2849
54.2824
54.2799
54.2775
54.275
54.2725
54.27
54.2676
54.2651
54.2626
54.2601
54.2577
54.2552
54.2527
54.2502
54.2478
54.2453
54.2428
54.2403
54.2379
54.2354
54.2329
54.2304
54.228
54.2255
54.223
54.2206
54.2181
54.2156
54.2132
54.2107
54.2082
54.2058
54.2033
54.2008
54.1984
54.1959
54.1934
54.191
54.1885
54.186
54.1836
54.1811
54.1786
54.1762
54.1737
54.1712
54.1688
54.1663
54.1639
54.1614
54.1589
54.1565
54.154
54.1516
54.1491
54.1466
54.1442
54.1417
54.1393
54.1368
54.1344
54.1319
54.1294
54.127
54.1245
54.1221
54.1196
54.1172
54.1147
54.1123
54.1098
54.1073
54.1049
54.1024
54.1
54.0975
54.0951
54.0926
54.0902
54.0877
54.0853
54.0828
54.0804
54.0779
54.0755
54.073
54.0706
54.0681
54.0657
54.0633
54.0608
54.0584
54.0559
54.0535
54.051
54.0486
54.0461
54.0437
54.0412
54.0388
54.0364
54.0339
54.0315
54.029
54.0266
54.0242
54.0217
54.0193
54.0168
54.0144
54.012
54.0095
54.0071
54.0046
54.0022
53.9998
53.9973
53.9949
53.9925
53.99
53.9876
53.9851
53.9827
53.9803
53.9778
53.9754
53.973
53.9705
53.9681
53.9657
53.9632
53.9608
53.9584
53.956
53.9535
53.9511
53.9487
53.9462
53.9438
53.9414
53.9389
53.9365
53.9341
53.9317
53.9292
53.9268
53.9244
53.922
53.9195
53.9171
53.9147
53.9123
53.9098
53.9074
53.905
53.9026
53.9001
53.8977
53.8953
53.8929
53.8905
53.888
53.8856
53.8832
53.8808
53.8783
53.8759
53.8735
53.8711
53.8687
53.8663
53.8638
53.8614
53.859
53.8566
53.8542
53.8518
53.8493
53.8469
53.8445
53.8421
53.8397
53.8373
53.8349
53.8324
53.83
53.8276
53.8252
53.8228
53.8204
53.818
53.8156
53.8132
53.8107
53.8083
53.8059
53.8035
53.8011
53.7987
53.7963
53.7939
53.7915
53.7891
53.7867
53.7843
53.7819
53.7795
53.7771
53.7747
53.7722
53.7698
53.7674
53.765
53.7626
53.7602
53.7578
53.7554
53.753
53.7506
53.7482
53.7458
53.7434
53.741
53.7386
53.7362
53.7338
53.7314
53.729
53.7266
53.7242
53.7219
53.7195
53.7171
53.7147
53.7123
53.7099
53.7075
53.7051
53.7027
53.7003
53.6979
53.6955
53.6931
53.6907
53.6883
53.6859
53.6836
53.6812
53.6788
53.6764
53.674
53.6716
53.6692
53.6668
53.6644
53.6621
53.6597
53.6573
53.6549
53.6525
53.6501
53.6477
53.6454
53.643
53.6406
53.6382
53.6358
53.6334
53.6311
53.6287
53.6263
53.6239
53.6215
53.6191
53.6168
53.6144
53.612
53.6096
53.6072
53.6049
53.6025
53.6001
53.5977
53.5954
53.593
53.5906
53.5882
53.5859
53.5835
53.5811
53.5787
53.5763
53.574
53.5716
53.5692
53.5669
53.5645
53.5621
53.5597
53.5574
53.555
53.5526
53.5503
53.5479
53.5455
53.5431
53.5408
53.5384
53.536
53.5337
53.5313
53.5289
53.5266
53.5242
53.5218
53.5195
53.5171
53.5147
53.5124
53.51
53.5076
53.5053
53.5029
53.5005
53.4982
53.4958
53.4935
53.4911
53.4887
53.4864
53.484
53.4817
53.4793
53.4769
53.4746
53.4722
53.4699
53.4675
53.4651
53.4628
53.4604
53.4581
53.4557
53.4534
53.451
53.4486
53.4463
53.4439
53.4416
53.4392
53.4369
53.4345
53.4322
53.4298
53.4275
53.4251
53.4228
53.4204
53.4181
53.4157
53.4134
53.411
53.4087
53.4063
53.404
53.4016
53.3993
53.3969
53.3946
53.3922
53.3899
53.3875
53.3852
53.3828
53.3805
53.3781
53.3758
53.3735
53.3711
53.3688
53.3664
53.3641
53.3617
53.3594
53.3571
53.3547
53.3524
53.35
53.3477
53.3454
53.343
53.3407
53.3383
53.336
53.3337
53.3313
53.329
53.3266
53.3243
53.322
53.3196
53.3173
53.315
53.3126
53.3103
53.308
53.3056
53.3033
53.301
53.2986
53.2963
53.294
53.2916
53.2893
53.287
53.2846
53.2823
53.28
53.2776
53.2753
53.273
53.2707
53.2683
53.266
53.2637
53.2613
53.259
53.2567
53.2544
53.252
53.2497
53.2474
53.2451
53.2427
53.2404
53.2381
53.2358
53.2334
53.2311
53.2288
53.2265
53.2242
53.2218
53.2195
53.2172
53.2149
53.2126
53.2102
53.2079
53.2056
53.2033
53.201
53.1986
53.1963
53.194
53.1917
53.1894
53.1871
53.1847
53.1824
53.1801
53.1778
53.1755
53.1732
53.1709
53.1685
53.1662
53.1639
53.1616
53.1593
53.157
53.1547
53.1524
53.15
53.1477
53.1454
53.1431
53.1408
53.1385
53.1362
53.1339
53.1316
53.1293
53.127
53.1247
53.1224
53.12
53.1177
53.1154
53.1131
53.1108
53.1085
53.1062
53.1039
53.1016
53.0993
53.097
53.0947
53.0924
53.0901
53.0878
53.0855
53.0832
53.0809
53.0786
53.0763
53.074
53.0717
53.0694
53.0671
53.0648
53.0625
53.0602
53.0579
53.0556
53.0533
53.051
53.0487
53.0464
53.0441
53.0418
53.0396
53.0373
53.035
53.0327
53.0304
53.0281
53.0258
53.0235
53.0212
53.0189
53.0166
53.0143
53.0121
53.0098
53.0075
53.0052
53.0029
53.0006
52.9983
52.996
52.9938
52.9915
52.9892
52.9869
52.9846
52.9823
52.98
52.9778
52.9755
52.9732
52.9709
52.9686
52.9663
52.9641
52.9618
52.9595
52.9572
52.9549
52.9527
52.9504
52.9481
52.9458
52.9435
52.9413
52.939
52.9367
52.9344
52.9321
52.9299
52.9276
52.9253
52.923
52.9208
52.9185
52.9162
52.9139
52.9117
52.9094
52.9071
52.9048
52.9026
52.9003
52.898
52.8958
52.8935
52.8912
52.8889
52.8867
52.8844
52.8821
52.8799
52.8776
52.8753
52.8731
52.8708
52.8685
52.8663
52.864
52.8617
52.8595
52.8572
52.8549
52.8527
52.8504
52.8481
52.8459
52.8436
52.8413
52.8391
52.8368
52.8345
52.8323
52.83
52.8278
52.8255
52.8232
52.821
52.8187
52.8165
52.8142
52.8119
52.8097
52.8074
52.8052
52.8029
52.8006
52.7984
52.7961
52.7939
52.7916
52.7894
52.7871
52.7849
52.7826
52.7804
52.7781
52.7758
52.7736
52.7713
52.7691
52.7668
52.7646
52.7623
52.7601
52.7578
52.7556
52.7533
52.7511
52.7488
52.7466
52.7443
52.7421
52.7398
52.7376
52.7353
52.7331
52.7308
52.7286
52.7264
52.7241
52.7219
52.7196
52.7174
52.7151
52.7129
52.7106
52.7084
52.7062
52.7039
52.7017
52.6994
52.6972
52.6949
52.6927
52.6905
52.6882
52.686
52.6837
52.6815
52.6793
52.677
52.6748
52.6726
52.6703
52.6681
52.6658
52.6636
52.6614
52.6591
52.6569
52.6547
52.6524
52.6502
52.648
52.6457
52.6435
52.6413
52.639
52.6368
52.6346
52.6323
52.6301
52.6279
52.6256
52.6234
52.6212
52.619
52.6167
52.6145
52.6123
52.61
52.6078
52.6056
52.6034
52.6011
52.5989
52.5967
52.5945
52.5922
52.59
52.5878
52.5856
52.5833
52.5811
52.5789
52.5767
52.5744
52.5722
52.57
52.5678
52.5656
52.5633
52.5611
52.5589
52.5567
52.5545
52.5522
52.55
52.5478
52.5456
52.5434
52.5412
52.5389
52.5367
52.5345
52.5323
52.5301
52.5279
52.5256
52.5234
52.5212
52.519
52.5168
52.5146
52.5124
52.5101
52.5079
52.5057
52.5035
52.5013
52.4991
52.4969
52.4947
52.4925
52.4903
52.488
52.4858
52.4836
52.4814
52.4792
52.477
52.4748
52.4726
52.4704
52.4682
52.466
52.4638
52.4616
52.4594
52.4572
52.4549
52.4527
52.4505
52.4483
52.4461
52.4439
52.4417
52.4395
52.4373
52.4351
52.4329
52.4307
52.4285
52.4263
52.4241
52.4219
52.4197
52.4175
52.4153
52.4131
52.4109
52.4087
52.4065
52.4044
52.4022
52.4
52.3978
52.3956
52.3934
52.3912
52.389
52.3868
52.3846
52.3824
52.3802
52.378
52.3758
52.3736
52.3715
52.3693
52.3671
52.3649
52.3627
52.3605
52.3583
52.3561
52.3539
52.3518
52.3496
52.3474
52.3452
52.343
52.3408
52.3386
52.3364
52.3343
52.3321
52.3299
52.3277
52.3255
52.3233
52.3212
52.319
52.3168
52.3146
52.3124
52.3102
52.3081
52.3059
52.3037
52.3015
52.2993
52.2972
52.295
52.2928
52.2906
52.2885
52.2863
52.2841
52.2819
52.2797
52.2776
52.2754
52.2732
52.271
52.2689
52.2667
52.2645
52.2623
52.2602
52.258
52.2558
52.2537
52.2515
52.2493
52.2471
52.245
52.2428
52.2406
52.2385
52.2363
52.2341
52.232
52.2298
52.2276
52.2254
52.2233
52.2211
52.2189
52.2168
52.2146
52.2124
52.2103
52.2081
52.2059
52.2038
52.2016
52.1995
52.1973
52.1951
52.193
52.1908
52.1886
52.1865
52.1843
52.1822
52.18
52.1778
52.1757
52.1735
52.1714
52.1692
52.167
52.1649
52.1627
52.1606
52.1584
52.1562
52.1541
52.1519
52.1498
52.1476
52.1455
52.1433
52.1412
52.139
52.1368
52.1347
52.1325
52.1304
52.1282
52.1261
52.1239
52.1218
52.1196
52.1175
52.1153
52.1132
52.111
52.1089
52.1067
52.1046
52.1024
52.1003
52.0981
52.096
52.0938
52.0917
52.0895
52.0874
52.0853
52.0831
52.081
52.0788
52.0767
52.0745
52.0724
52.0702
52.0681
52.066
52.0638
52.0617
52.0595
52.0574
52.0552
52.0531
52.051
52.0488
52.0467
52.0445
52.0424
52.0403
52.0381
52.036
52.0339
52.0317
52.0296
52.0274
52.0253
52.0232
52.021
52.0189
52.0168
52.0146
52.0125
52.0104
52.0082
52.0061
52.004
52.0018
51.9997
51.9976
51.9954
51.9933
51.9912
51.989
51.9869
51.9848
51.9826
51.9805
51.9784
51.9763
51.9741
51.972
51.9699
51.9677
51.9656
51.9635
51.9614
51.9592
51.9571
51.955
51.9529
51.9507
51.9486
51.9465
51.9444
51.9422
51.9401
51.938
51.9359
51.9338
51.9316
51.9295
51.9274
51.9253
51.9232
51.921
51.9189
51.9168
51.9147
51.9126
51.9104
51.9083
51.9062
51.9041
51.902
51.8999
51.8977