# vtk DataFile Version 2.0
vtk output
ASCII
DATASET STRUCTURED_GRID
DIMENSIONS 50 10 30
POINTS 15000 float
0 0 0
1 0 0
2 0 0
3 0 0
4 0 0
5 0 0
6 0 0
7 0 0
8 0 0
9 0 0
10 0 0
11 0 0
12 0 0
13 0 0
14 0 0
15 0 0
16 0 0
17 0 0
18 0 0
19 0 0
20 0 0
21 0 0
22 0 0
23 0 0
24 0 0
25 0 0
26 0 0
27 0 0
28 0 0
29 0 0
30 0 0
31 0 0
32 0 0
33 0 0
34 0 0
35 0 0
36 0 0
37 0 0
38 0 0
39 0 0
40 0 0
41 0 0
42 0 0
43 0 0
44 0 0
45 0 0
46 0 0
47 0 0
48 0 0
49 0 0
0 1 0
1 1 0
2 1 0
3 1 0
4 1 0
5 1 0
6 1 0
7 1 0
8 1 0
9 1 0
10 1 0
11 1 0
12 1 0
13 1 0
14 1 0
15 1 0
16 1 0
17 1 0
18 1 0
19 1 0
20 1 0
21 1 0
22 1 0
23 1 0
24 1 0
25 1 0
26 1 0
27 1 0
28 1 0
29 1 0
30 1 0
31 1 0
32 1 0
33 1 0
34 1 0
35 1 0
36 1 0
37 1 0
38 1 0
39 1 0
40 1 0
41 1 0
42 1 0
43 1 0
44 1 0
45 1 0
46 1 0
47 1 0
48 1 0
49 1 0
0 2 0
1 2 0
2 2 0
3 2 0
4 2 0
5 2 0
6 2 0
7 2 0
8 2 0
9 2 0
10 2 0
11 2 0
12 2 0
13 2 0
14 2 0
15 2 0
16 2 0
17 2 0
18 2 0
19 2 0
20 2 0
21 2 0
22 2 0
23 2 0
24 2 0
25 2 0
26 2 0
27 2 0
28 2 0
29 2 0
30 2 0
31 2 0
32 2 0
33 2 0
34 2 0
35 2 0
36 2 0
37 2 0
38 2 0
39 2 0
40 2 0
41 2 0
42 2 0
43 2 0
44 2 0
45 2 0
46 2 0
47 2 0
48 2 0
49 2 0
0 3 0
1 3 0
2 3 0
3 3 0
4 3 0
5 3 0
6 3 0
7 3 0
8 3 0
9 3 0
10 3 0
11 3 0
12 3 0
13 3 0
14 3 0
15 3 0
16 3 0
17 3 0
18 3 0
19 3 0
20 3 0
21 3 0
22 3 0
23 3 0
24 3 0
25 3 0
26 3 0
27 3 0
28 3 0
29 3 0
30 3 0
31 3 0
32 3 0
33 3 0
34 3 0
35 3 0
36 3 0
37 3 0
38 3 0
39 3 0
40 3 0
41 3 0
42 3 0
43 3 0
44 3 0
45 3 0
46 3 0
47 3 0
48 3 0
49 3 0
0 4 0
1 4 0
2 4 0
3 4 0
4 4 0
5 4 0
6 4 0
7 4 0
8 4 0
9 4 0
10 4 0
11 4 0
12 4 0
13 4 0
14 4 0
15 4 0
16 4 0
17 4 0
18 4 0
19 4 0
20 4 0
21 4 0
22 4 0
23 4 0
24 4 0
25 4 0
26 4 0
27 4 0
28 4 0
29 4 0
30 4 0
31 4 0
32 4 0
33 4 0
34 4 0
35 4 0
36 4 0
37 4 0
38 4 0
39 4 0
40 4 0
41 4 0
42 4 0
43 4 0
44 4 0
45 4 0
46 4 0
47 4 0
48 4 0
49 4 0
0 5 0
1 5 0
2 5 0
3 5 0
4 5 0
5 5 0
6 5 0
7 5 0
8 5 0
9 5 0
10 5 0
11 5 0
12 5 0
13 5 0
14 5 0
15 5 0
16 5 0
17 5 0
18 5 0
19 5 0
20 5 0
21 5 0
22 5 0
23 5 0
24 5 0
25 5 0
26 5 0
27 5 0
28 5 0
29 5 0
30 5 0
31 5 0
32 5 0
33 5 0
34 5 0
35 5 0
36 5 0
37 5 0
38 5 0
39 5 0
40 5 0
41 5 0
42 5 0
43 5 0
44 5 0
45 5 0
46 5 0
47 5 0
48 5 0
49 5 0
0 6 0
1 6 0
2 6 0
3 6 0
4 6 0
5 6 0
6 6 0
7 6 0
8 6 0
9 6 0
10 6 0
11 6 0
12 6 0
13 6 0
14 6 0
15 6 0
16 6 0
17 6 0
18 6 0
19 6 0
20 6 0
21 6 0
22 6 0
23 6 0
24 6 0
25 6 0
26 6 0
27 6 0
28 6 0
29 6 0
30 6 0
31 6 0
32 6 0
33 6 0
34 6 0
35 6 0
36 6 0
37 6 0
38 6 0
39 6 0
40 6 0
41 6 0
42 6 0
43 6 0
44 6 0
45 6 0
46 6 0
47 6 0
48 6 0
49 6 0
0 7 0
1 7 0
2 7 0
3 7 0
4 7 0
5 7 0
6 7 0
7 7 0
8 7 0
9 7 0
10 7 0
11 7 0
12 7 0
13 7 0
14 7 0
15 7 0
16 7 0
17 7 0
18 7 0
19 7 0
20 7 0
21 7 0
22 7 0
23 7 0
24 7 0
25 7 0
26 7 0
27 7 0
28 7 0
29 7 0
30 7 0
31 7 0
32 7 0
33 7 0
34 7 0
35 7 0
36 7 0
37 7 0
38 7 0
39 7 0
40 7 0
41 7 0
42 7 0
43 7 0
44 7 0
45 7 0
46 7 0
47 7 0
48 7 0
49 7 0
0 8 0
1 8 0
2 8 0
3 8 0
4 8 0
5 8 0
6 8 0
7 8 0
8 8 0
9 8 0
10 8 0
11 8 0
12 8 0
13 8 0
14 8 0
15 8 0
16 8 0
17 8 0
18 8 0
19 8 0
20 8 0
21 8 0
22 8 0
23 8 0
24 8 0
25 8 0
26 8 0
27 8 0
28 8 0
29 8 0
30 8 0
31 8 0
32 8 0
33 8 0
34 8 0
35 8 0
36 8 0
37 8 0
38 8 0
39 8 0
40 8 0
41 8 0
42 8 0
43 8 0
44 8 0
45 8 0
46 8 0
47 8 0
48 8 0
49 8 0
0 9 0
1 9 0
2 9 0
3 9 0
4 9 0
5 9 0
6 9 0
7 9 0
8 9 0
9 9 0
10 9 0
11 9 0
12 9 0
13 9 0
14 9 0
15 9 0
16 9 0
17 9 0
18 9 0
19 9 0
20 9 0
21 9 0
22 9 0
23 9 0
24 9 0
25 9 0
26 9 0
27 9 0
28 9 0
29 9 0
30 9 0
31 9 0
32 9 0
33 9 0
34 9 0
35 9 0
36 9 0
37 9 0
38 9 0
39 9 0
40 9 0
41 9 0
42 9 0
43 9 0
44 9 0
45 9 0
46 9 0
47 9 0
48 9 0
49 9 0
0 0 1
1 0 1
2 0 1
3 0 1
4 0 1
5 0 1
6 0 1
7 0 1
8 0 1
9 0 1
10 0 1
11 0 1
12 0 1
13 0 1
14 0 1
15 0 1
16 0 1
17 0 1
18 0 1
19 0 1
20 0 1
21 0 1
22 0 1
23 0 1
24 0 1
25 0 1
26 0 1
27 0 1
28 0 1
29 0 1
30 0 1
31 0 1
32 0 1
33 0 1
34 0 1
35 0 1
36 0 1
37 0 1
38 0 1
39 0 1
40 0 1
41 0 1
42 0 1
43 0 1
44 0 1
45 0 1
46 0 1
47 0 1
48 0 1
49 0 1
0 1 1
1 1 1
2 1 1
3 1 1
4 1 1
5 1 1
6 1 1
7 1 1
8 1 1
9 1 1
10 1 1
11 1 1
12 1 1
13 1 1
14 1 1
15 1 1
16 1 1
17 1 1
18 1 1
19 1 1
20 1 1
21 1 1
22 1 1
23 1 1
24 1 1
25 1 1
26 1 1
27 1 1
28 1 1
29 1 1
30 1 1
31 1 1
32 1 1
33 1 1
34 1 1
35 1 1
36 1 1
37 1 1
38 1 1
39 1 1
40 1 1
41 1 1
42 1 1
43 1 1
44 1 1
45 1 1
46 1 1
47 1 1
48 1 1
49 1 1
0 2 1
1 2 1
2 2 1
3 2 1
4 2 1
5 2 1
6 2 1
7 2 1
8 2 1
9 2 1
10 2 1
11 2 1
12 2 1
13 2 1
14 2 1
15 2 1
16 2 1
17 2 1
18 2 1
19 2 1
20 2 1
21 2 1
22 2 1
23 2 1
24 2 1
25 2 1
26 2 1
27 2 1
28 2 1
29 2 1
30 2 1
31 2 1
32 2 1
33 2 1
34 2 1
35 2 1
36 2 1
37 2 1
38 2 1
39 2 1
40 2 1
41 2 1
42 2 1
43 2 1
44 2 1
45 2 1
46 2 1
47 2 1
48 2 1
49 2 1
0 3 1
1 3 1
2 3 1
3 3 1
4 3 1
5 3 1
6 3 1
7 3 1
8 3 1
9 3 1
10 3 1
11 3 1
12 3 1
13 3 1
14 3 1
15 3 1
16 3 1
17 3 1
18 3 1
19 3 1
20 3 1
21 3 1
22 3 1
23 3 1
24 3 1
25 3 1
26 3 1
27 3 1
28 3 1
29 3 1
30 3 1
31 3 1
32 3 1
33 3 1
34 3 1
35 3 1
36 3 1
37 3 1
38 3 1
39 3 1
40 3 1
41 3 1
42 3 1
43 3 1
44 3 1
45 3 1
46 3 1
47 3 1
48 3 1
49 3 1
0 4 1
1 4 1
2 4 1
3 4 1
4 4 1
5 4 1
6 4 1
7 4 1
8 4 1
9 4 1
10 4 1
11 4 1
12 4 1
13 4 1
14 4 1
15 4 1
16 4 1
17 4 1
18 4 1
19 4 1
20 4 1
21 4 1
22 4 1
23 4 1
24 4 1
25 4 1
26 4 1
27 4 1
28 4 1
29 4 1
30 4 1
31 4 1
32 4 1
33 4 1
34 4 1
35 4 1
36 4 1
37 4 1
38 4 1
39 4 1
40 4 1
41 4 1
42 4 1
43 4 1
44 4 1
45 4 1
46 4 1
47 4 1
48 4 1
49 4 1
0 5 1
1 5 1
2 5 1
3 5 1
4 5 1
5 5 1
6 5 1
7 5 1
8 5 1
9 5 1
10 5 1
11 5 1
12 5 1
13 5 1
14 5 1
15 5 1
16 5 1
17 5 1
18 5 1
19 5 1
20 5 1
21 5 1
22 5 1
23 5 1
24 5 1
25 5 1
26 5 1
27 5 1
28 5 1
29 5 1
30 5 1
31 5 1
32 5 1
33 5 1
34 5 1
35 5 1
36 5 1
37 5 1
38 5 1
39 5 1
40 5 1
41 5 1
42 5 1
43 5 1
44 5 1
45 5 1
46 5 1
47 5 1
48 5 1
49 5 1
0 6 1
1 6 1
2 6 1
3 6 1
4 6 1
5 6 1
6 6 1
7 6 1
8 6 1
9 6 1
10 6 1
11 6 1
12 6 1
13 6 1
14 6 1
15 6 1
16 6 1
17 6 1
18 6 1
19 6 1
20 6 1
21 6 1
22 6 1
23 6 1
24 6 1
25 6 1
26 6 1
27 6 1
28 6 1
29 6 1
30 6 1
31 6 1
32 6 1
33 6 1
34 6 1
35 6 1
36 6 1
37 6 1
38 6 1
39 6 1
40 6 1
41 6 1
42 6 1
43 6 1
44 6 1
45 6 1
46 6 1
47 6 1
48 6 1
49 6 1
0 7 1
1 7 1
2 7 1
3 7 1
4 7 1
5 7 1
6 7 1
7 7 1
8 7 1
9 7 1
10 7 1
11 7 1
12 7 1
13 7 1
14 7 1
15 7 1
16 7 1
17 7 1
18 7 1
19 7 1
20 7 1
21 7 1
22 7 1
23 7 1
24 7 1
25 7 1
26 7 1
27 7 1
28 7 1
29 7 1
30 7 1
31 7 1
32 7 1
33 7 1
34 7 1
35 7 1
36 7 1
37 7 1
38 7 1
39 7 1
40 7 1
41 7 1
42 7 1
43 7 1
44 7 1
45 7 1
46 7 1
47 7 1
48 7 1
49 7 1
0 8 1
1 8 1
2 8 1
3 8 1
4 8 1
5 8 1
6 8 1
7 8 1
8 8 1
9 8 1
10 8 1
11 8 1
12 8 1
13 8 1
14 8 1
15 8 1
16 8 1
17 8 1
18 8 1
19 8 1
20 8 1
21 8 1
22 8 1
23 8 1
24 8 1
25 8 1
26 8 1
27 8 1
28 8 1
29 8 1
30 8 1
31 8 1
32 8 1
33 8 1
34 8 1
35 8 1
36 8 1
37 8 1
38 8 1
39 8 1
40 8 1
41 8 1
42 8 1
43 8 1
44 8 1
45 8 1
46 8 1
47 8 1
48 8 1
49 8 1
0 9 1
1 9 1
2 9 1
3 9 1
4 9 1
5 9 1
6 9 1
7 9 1
8 9 1
9 9 1
10 9 1
11 9 1
12 9 1
13 9 1
14 9 1
15 9 1
16 9 1
17 9 1
18 9 1
19 9 1
20 9 1
21 9 1
22 9 1
23 9 1
24 9 1
25 9 1
26 9 1
27 9 1
28 9 1
29 9 1
30 9 1
31 9 1
32 9 1
33 9 1
34 9 1
35 9 1
36 9 1
37 9 1
38 9 1
39 9 1
40 9 1
41 9 1
42 9 1
43 9 1
44 9 1
45 9 1
46 9 1
47 9 1
48 9 1
49 9 1
0 0 2
1 0 2
2 0 2
3 0 2
4 0 2
5 0 2
6 0 2
7 0 2
8 0 2
9 0 2
10 0 2
11 0 2
12 0 2
13 0 2
14 0 2
15 0 2
16 0 2
17 0 2
18 0 2
19 0 2
20 0 2
21 0 2
22 0 2
23 0 2
24 0 2
25 0 2
26 0 2
27 0 2
28 0 2
29 0 2
30 0 2
31 0 2
32 0 2
33 0 2
34 0 2
35 0 2
36 0 2
37 0 2
38 0 2
39 0 2
40 0 2
41 0 2
42 0 2
43 0 2
44 0 2
45 0 2
46 0 2
47 0 2
48 0 2
49 0 2
0 1 2
1 1 2
2 1 2
3 1 2
4 1 2
5 1 2
6 1 2
7 1 2
8 1 2
9 1 2
10 1 2
11 1 2
12 1 2
13 1 2
14 1 2
15 1 2
16 1 2
17 1 2
18 1 2
19 1 2
20 1 2
21 1 2
22 1 2
23 1 2
24 1 2
25 1 2
26 1 2
27 1 2
28 1 2
29 1 2
30 1 2
31 1 2
32 1 2
33 1 2
34 1 2
35 1 2
36 1 2
37 1 2
38 1 2
39 1 2
40 1 2
41 1 2
42 1 2
43 1 2
44 1 2
45 1 2
46 1 2
47 1 2
48 1 2
49 1 2
0 2 2
1 2 2
2 2 2
3 2 2
4 2 2
5 2 2
6 2 2
7 2 2
8 2 2
9 2 2
10 2 2
11 2 2
12 2 2
13 2 2
14 2 2
15 2 2
16 2 2
17 2 2
18 2 2
19 2 2
20 2 2
21 2 2
22 2 2
23 2 2
24 2 2
25 2 2
26 2 2
27 2 2
28 2 2
29 2 2
30 2 2
31 2 2
32 2 2
33 2 2
34 2 2
35 2 2
36 2 2
37 2 2
38 2 2
39 2 2
40 2 2
41 2 2
42 2 2
43 2 2
44 2 2
45 2 2
46 2 2
47 2 2
48 2 2
49 2 2
0 3 2
1 3 2
2 3 2
3 3 2
4 3 2
5 3 2
6 3 2
7 3 2
8 3 2
9 3 2
10 3 2
11 3 2
12 3 2
13 3 2
14 3 2
15 3 2
16 3 2
17 3 2
18 3 2
19 3 2
20 3 2
21 3 2
22 3 2
23 3 2
24 3 2
25 3 2
26 3 2
27 3 2
28 3 2
29 3 2
30 3 2
31 3 2
32 3 2
33 3 2
34 3 2
35 3 2
36 3 2
37 3 2
38 3 2
39 3 2
40 3 2
41 3 2
42 3 2
43 3 2
44 3 2
45 3 2
46 3 2
47 3 2
48 3 2
49 3 2
0 4 2
1 4 2
2 4 2
3 4 2
4 4 2
5 4 2
6 4 2
7 4 2
8 4 2
9 4 2
10 4 2
11 4 2
12 4 2
13 4 2
14 4 2
15 4 2
16 4 2
17 4 2
18 4 2
19 4 2
20 4 2
21 4 2
22 4 2
23 4 2
24 4 2
25 4 2
26 4 2
27 4 2
28 4 2
29 4 2
30 4 2
31 4 2
32 4 2
33 4 2
34 4 2
35 4 2
36 4 2
37 4 2
38 4 2
39 4 2
40 4 2
41 4 2
42 4 2
43 4 2
44 4 2
45 4 2
46 4 2
47 4 2
48 4 2
49 4 2
0 5 2
1 5 2
2 5 2
3 5 2
4 5 2
5 5 2
6 5 2
7 5 2
8 5 2
9 5 2
10 5 2
11 5 2
12 5 2
13 5 2
14 5 2
15 5 2
16 5 2
17 5 2
18 5 2
19 5 2
20 5 2
21 5 2
22 5 2
23 5 2
24 5 2
25 5 2
26 5 2
27 5 2
28 5 2
29 5 2
30 5 2
31 5 2
32 5 2
33 5 2
34 5 2
35 5 2
36 5 2
37 5 2
38 5 2
39 5 2
40 5 2
41 5 2
42 5 2
43 5 2
44 5 2
45 5 2
46 5 2
47 5 2
48 5 2
49 5 2
0 6 2
1 6 2
2 6 2
3 6 2
4 6 2
5 6 2
6 6 2
7 6 2
8 6 2
9 6 2
10 6 2
11 6 2
12 6 2
13 6 2
14 6 2
15 6 2
16 6 2
17 6 2
18 6 2
19 6 2
20 6 2
21 6 2
22 6 2
23 6 2
24 6 2
25 6 2
26 6 2
27 6 2
28 6 2
29 6 2
30 6 2
31 6 2
32 6 2
33 6 2
34 6 2
35 6 2
36 6 2
37 6 2
38 6 2
39 6 2
40 6 2
41 6 2
42 6 2
43 6 2
44 6 2
45 6 2
46 6 2
47 6 2
48 6 2
49 6 2
0 7 2
1 7 2
2 7 2
3 7 2
4 7 2
5 7 2
6 7 2
7 7 2
8 7 2
9 7 2
10 7 2
11 7 2
12 7 2
13 7 2
14 7 2
15 7 2
16 7 2
17 7 2
18 7 2
19 7 2
20 7 2
21 7 2
22 7 2
23 7 2
24 7 2
25 7 2
26 7 2
27 7 2
28 7 2
29 7 2
30 7 2
31 7 2
32 7 2
33 7 2
34 7 2
35 7 2
36 7 2
37 7 2
38 7 2
39 7 2
40 7 2
41 7 2
42 7 2
43 7 2
44 7 2
45 7 2
46 7 2
47 7 2
48 7 2
49 7 2
0 8 2
1 8 2
2 8 2
3 8 2
4 8 2
5 8 2
6 8 2
7 8 2
8 8 2
9 8 2
10 8 2
11 8 2
12 8 2
13 8 2
14 8 2
15 8 2
16 8 2
17 8 2
18 8 2
19 8 2
20 8 2
21 8 2
22 8 2
23 8 2
24 8 2
25 8 2
26 8 2
27 8 2
28 8 2
29 8 2
30 8 2
31 8 2
32 8 2
33 8 2
34 8 2
35 8 2
36 8 2
37 8 2
38 8 2
39 8 2
40 8 2
41 8 2
42 8 2
43 8 2
44 8 2
45 8 2
46 8 2
47 8 2
48 8 2
49 8 2
0 9 2
1 9 2
2 9 2
3 9 2
4 9 2
[...]
POINT_DATA 15000
SCALARS sol151 float
LOOKUP_TABLE default
57.2497
57.2467
57.2436
57.2406
57.2375
57.2345
57.2314
57.2284
57.2254
57.2223
57.2193
57.2162
57.2132
57.2101
57.2071
57.204
57.201
57.198
57.1949
57.1919
57.1888
57.1858
57.1827
57.1797
57.1767
57.1736
57.1706
57.1676
57.1645
57.1615
57.1584
57.1554
57.1524
57.1493
57.1463
57.1433
57.1402
57.1372
57.1342
57.1311
57.1281
57.1251
57.122
57.119
57.116
57.1129
57.1099
57.1069
57.1038
57.1008
57.0978
57.0948
57.0917
57.0887
57.0857
57.0826
57.0796
57.0766
57.0736
57.0705
57.0675
57.0645
57.0615
57.0584
57.0554
57.0524
57.0494
57.0464
57.0433
57.0403
57.0373
57.0343
57.0313
57.0282
57.0252
57.0222
57.0192
57.0162
57.0131
57.0101
57.0071
57.0041
57.0011
56.9981
56.995
56.992
56.989
56.986
56.983
56.98
56.977
56.9739
56.9709
56.9679
56.9649
56.9619
56.9589
56.9559
56.9529
56.9499
56.9469
56.9438
56.9408
56.9378
56.9348
56.9318
56.9288
56.9258
56.9228
56.9198
56.9168
56.9138
56.9108
56.9078
56.9048
56.9018
56.8988
56.8958
56.8928
56.8898
56.8868
56.8838
56.8808
56.8778
56.8748
56.8718
56.8688
56.8658
56.8628
56.8598
56.8568
56.8538
56.8508
56.8478
56.8448
56.8418
56.8388
56.8358
56.8328
56.8298
56.8268
56.8238
56.8208
56.8179
56.8149
56.8119
56.8089
56.8059
56.8029
56.7999
56.7969
56.7939
56.7909
56.788
56.785
56.782
56.779
56.776
56.773
56.77
56.7671
56.7641
56.7611
56.7581
56.7551
56.7521
56.7492
56.7462
56.7432
56.7402
56.7372
56.7343
56.7313
56.7283
56.7253
56.7223
56.7194
56.7164
56.7134
56.7104
56.7074
56.7045
56.7015
56.6985
56.6955
56.6926
56.6896
56.6866
56.6836
56.6807
56.6777
56.6747
56.6718
56.6688
56.6658
56.6628
56.6599
56.6569
56.6539
56.651
56.648
56.645
56.6421
56.6391
56.6361
56.6332
56.6302
56.6272
56.6243
56.6213
56.6183
56.6154
56.6124
56.6094
56.6065
56.6035
56.6005
56.5976
56.5946
56.5917
56.5887
56.5857
56.5828
56.5798
56.5769
56.5739
56.5709
56.568
56.565
56.5621
56.5591
56.5562
56.5532
56.5502
56.5473
56.5443
56.5414
56.5384
56.5355
56.5325
56.5296
56.5266
56.5237
56.5207
56.5178
56.5148
56.5119
56.5089
56.506
56.503
56.5001
56.4971
56.4942
56.4912
56.4883
56.4853
56.4824
56.4794
56.4765
56.4735
56.4706
56.4677
56.4647
56.4618
56.4588
56.4559
56.4529
56.45
56.4471
56.4441
56.4412
56.4382
56.4353
56.4323
56.4294
56.4265
56.4235
56.4206
56.4177
56.4147
56.4118
56.4088
56.4059
56.403
56.4
56.3971
56.3942
56.3912
56.3883
56.3854
56.3824
56.3795
56.3766
56.3736
56.3707
56.3678
56.3648
56.3619
56.359
56.3561
56.3531
56.3502
56.3473
56.3443
56.3414
56.3385
56.3356
56.3326
56.3297
56.3268
56.3239
56.3209
56.318
56.3151
56.3122
56.3092
56.3063
56.3034
56.3005
56.2975
56.2946
56.2917
56.2888
56.2859
56.2829
56.28
56.2771
56.2742
56.2713
56.2684
56.2654
56.2625
56.2596
56.2567
56.2538
56.2509
56.2479
56.245
56.2421
56.2392
56.2363
56.2334
56.2305
56.2275
56.2246
56.2217
56.2188
56.2159
56.213
56.2101
56.2072
56.2043
56.2014
56.1985
56.1955
56.1926
56.1897
56.1868
56.1839
56.181
56.1781
56.1752
56.1723
56.1694
56.1665
56.1636
56.1607
56.1578
56.1549
56.152
56.1491
56.1462
56.1433
56.1404
56.1375
56.1346
56.1317
56.1288
56.1259
56.123
56.1201
56.1172
56.1143
56.1114
56.1085
56.1056
56.1027
56.0998
56.0969
56.094
56.0911
56.0882
56.0853
56.0824
56.0796
56.0767
56.0738
56.0709
56.068
56.0651
56.0622
56.0593
56.0564
56.0535
56.0507
56.0478
56.0449
56.042
56.0391
56.0362
56.0333
56.0305
56.0276
56.0247
56.0218
56.0189
56.016
56.0131
56.0103
56.0074
56.0045
56.0016
55.9987
55.9959
55.993
55.9901
55.9872
55.9843
55.9815
55.9786
55.9757
55.9728
55.97
55.9671
55.9642
55.9613
55.9584
55.9556
55.9527
55.9498
55.9469
55.9441
55.9412
55.9383
55.9355
55.9326
55.9297
55.9268
55.924
55.9211
55.9182
55.9154
55.9125
55.9096
55.9068
55.9039
55.901
55.8982
55.8953
55.8924
55.8896
55.8867
55.8838
55.881
55.8781
55.8752
55.8724
55.8695
55.8666
55.8638
55.8609
55.8581
55.8552
55.8523
55.8495
55.8466
55.8437
55.8409
55.838
55.8352
55.8323
55.8295
55.8266
55.8237
55.8209
55.818
55.8152
55.8123
55.8095
55.8066
55.8037
55.8009
55.798
55.7952
55.7923
55.7895
55.7866
55.7838
55.7809
55.7781
55.7752
55.7724
55.7695
55.7667
55.7638
55.761
55.7581
55.7553
55.7524
55.7496
55.7467
55.7439
55.7411
55.7382
55.7354
55.7325
55.7297
55.7268
55.724
55.7211
55.7183
55.7155
55.7126
55.7098
55.7069
55.7041
55.7013
55.6984
55.6956
55.6927
55.6899
55.6871
55.6842
55.6814
55.6785
55.6757
55.6729
55.67
55.6672
55.6644
55.6615
55.6587
55.6559
55.653
55.6502
55.6474
55.6445
55.6417
55.6389
55.636
55.6332
55.6304
55.6275
55.6247
55.6219
55.619
55.6162
55.6134
55.6106
55.6077
55.6049
55.6021
55.5993
55.5964
55.5936
55.5908
55.588
55.5851
55.5823
55.5795
55.5767
55.5738
55.571
55.5682
55.5654
55.5625
55.5597
55.5569
55.5541
55.5513
55.5484
55.5456
55.5428
55.54
55.5372
55.5344
55.5315
55.5287
55.5259
55.5231
55.5203
55.5175
55.5146
55.5118
55.509
55.5062
55.5034
55.5006
55.4978
55.4949
55.4921
55.4893
55.4865
55.4837
55.4809
55.4781
55.4753
55.4725
55.4697
55.4669
55.464
55.4612
55.4584
55.4556
55.4528
55.45
55.4472
55.4444
55.4416
55.4388
55.436
55.4332
55.4304
55.4276
55.4248
55.422
55.4192
55.4164
55.4136
55.4108
55.408
55.4052
55.4024
55.3996
55.3968
55.394
55.3912
55.3884
55.3856
55.3828
55.38
55.3772
55.3744
55.3716
55.3688
55.366
55.3632
55.3604
55.3576
55.3548
55.352
55.3493
55.3465
55.3437
55.3409
55.3381
55.3353
55.3325
55.3297
55.3269
55.3241
55.3214
55.3186
55.3158
55.313
55.3102
55.3074
55.3046
55.3018
55.2991
55.2963
55.2935
55.2907
55.2879
55.2851
55.2824
55.2796
55.2768
55.274
55.2712
55.2685
55.2657
55.2629
55.2601
55.2573
55.2546
55.2518
55.249
55.2462
55.2434
55.2407
55.2379
55.2351
55.2323
55.2296
55.2268
55.224
55.2212
55.2185
55.2157
55.2129
55.2101
55.2074
55.2046
55.2018
55.1991
55.1963
55.1935
55.1907
55.188
55.1852
55.1824
55.1797
55.1769
55.1741
55.1714
55.1686
55.1658
55.1631
55.1603
55.1575
55.1548
55.152
55.1492
55.1465
55.1437
55.1409
55.1382
55.1354
55.1327
55.1299
55.1271
55.1244
55.1216
55.1189
55.1161
55.1133
55.1106
55.1078
55.1051
55.1023
55.0995
55.0968
55.094
55.0913
55.0885
55.0858
55.083
55.0803
55.0775
55.0747
55.072
55.0692
55.0665
55.0637
55.061
55.0582
55.0555
55.0527
55.05
55.0472
55.0445
55.0417
55.039
55.0362
55.0335
55.0307
55.028
55.0252
55.0225
55.0197
55.017
55.0143
55.0115
55.0088
55.006
55.0033
55.0005
54.9978
54.995
54.9923
54.9896
54.9868
54.9841
54.9813
54.9786
54.9759
54.9731
54.9704
54.9676
54.9649
54.9622
54.9594
54.9567
54.9539
54.9512
54.9485
54.9457
54.943
54.9403
54.9375
54.9348
54.9321
54.9293
54.9266
54.9239
54.9211
54.9184
54.9157
54.9129
54.9102
54.9075
54.9047
54.902
54.8993
54.8966
54.8938
54.8911
54.8884
54.8856
54.8829
54.8802
54.8775
54.8747
54.872
54.8693
54.8666
54.8638
54.8611
54.8584
54.8557
54.8529
54.8502
54.8475
54.8448
54.842
54.8393
54.8366
54.8339
54.8312
54.8284
54.8257
54.823
54.8203
54.8176
54.8149
54.8121
54.8094
54.8067
54.804
54.8013
54.7986
54.7958
54.7931
54.7904
54.7877
54.785
54.7823
54.7796
54.7768
54.7741
54.7714
54.7687
54.766
54.7633
54.7606
54.7579
54.7552
54.7524
54.7497
54.747
54.7443
54.7416
54.7389
54.7362
54.7335
54.7308
54.7281
54.7254
54.7227
54.72
54.7173
54.7146
54.7119
54.7092
54.7064
54.7037
54.701
54.6983
54.6956
54.6929
54.6902
54.6875
54.6848
54.6821
54.6794
54.6767
54.674
54.6713
54.6687
54.666
54.6633
54.6606
54.6579
54.6552
54.6525
54.6498
54.6471
54.6444
54.6417
54.639
54.6363
54.6336
54.6309
54.6282
54.6255
54.6229
54.6202
54.6175
54.6148
54.6121
54.6094
54.6067
54.604
54.6013
54.5987
54.596
54.5933
54.5906
54.5879
54.5852
54.5825
54.5798
54.5772
54.5745
54.5718
54.5691
54.5664
54.5637
54.5611
54.5584
54.5557
54.553
54.5503
54.5477
54.545
54.5423
54.5396
54.5369
54.5343
54.5316
54.5289
54.5262
54.5236
54.5209
54.5182
54.5155
54.5128
54.5102
54.5075
54.5048
54.5021
54.4995
54.4968
54.4941
54.4915
54.4888
54.4861
54.4834
54.4808
54.4781
54.4754
54.4728
54.4701
54.4674
54.4648
54.4621
54.4594
54.4567
54.4541
54.4514
54.4487
54.4461
54.4434
54.4408
54.4381
54.4354
54.4328
54.4301
54.4274
54.4248
54.4221
54.4194
54.4168
54.4141
54.4115
54.4088
54.4061
54.4035
54.4008
54.3982
54.3955
54.3928
54.3902
54.3875
54.3849
54.3822
54.3796
54.3769
54.3742
54.3716
54.3689
54.3663
54.3636
54.361
54.3583
54.3557
54.353
54.3504
54.3477
54.345
54.3424
54.3397
54.3371
54.3344
54.3318
54.3291
54.3265
54.3238
54.3212
54.3185
54.3159
54.3133
54.3106
54.308
54.3053
54.3027
54.3
54.2974
54.2947
54.2921
54.2894
54.2868
54.2842
54.2815
54.2789
54.2762
54.2736
54.2709
54.2683
54.2657
54.263
54.2604
54.2577
54.2551
54.2525
54.2498
54.2472
54.2446
54.2419
54.2393
54.2366
54.234
54.2314
54.2287
54.2261
54.2235
54.2208
54.2182
54.2156
54.2129
54.2103
54.2077
54.205
54.2024
54.1998
54.1971
54.1945
54.1919
54.1893
54.1866
54.184
54.1814
54.1787
54.1761
54.1735
54.1709
54.1682
54.1656
54.163
54.1603
54.1577
54.1551
54.1525
54.1498
54.1472
54.1446
54.142
54.1394
54.1367
54.1341
54.1315
54.1289
54.1262
54.1236
54.121
54.1184
54.1158
54.1131
54.1105
54.1079
54.1053
54.1027
54.1001
54.0974
54.0948
54.0922
54.0896
54.087
54.0844
54.0817
54.0791
54.0765
54.0739
54.0713
54.0687
54.0661
54.0635
54.0608
54.0582
54.0556
54.053
54.0504
54.0478
54.0452
54.0426
54.04
54.0374
54.0348
54.0321
54.0295
54.0269
54.0243
54.0217
54.0191
54.0165
54.0139
54.0113
54.0087
54.0061
54.0035
54.0009
53.9983
53.9957
53.9931
53.9905
53.9879
53.9853
53.9827
53.9801
53.9775
53.9749
53.9723
53.9697
53.9671
53.9645
53.9619
53.9593
53.9567
53.9541
53.9515
53.9489
53.9463
53.9437
53.9411
53.9385
53.9359
53.9333
53.9307
53.9281
53.9256
53.923
53.9204
53.9178
53.9152
53.9126
53.91
53.9074
53.9048
53.9022
53.8997
53.8971
53.8945
53.8919
53.8893
53.8867
53.8841
53.8815
53.879
53.8764
53.8738
53.8712
53.8686
53.866
53.8635
53.8609
53.8583
53.8557
53.8531
53.8505
53.848
53.8454
53.8428
53.8402
53.8376
53.8351
53.8325
53.8299
53.8273
53.8247
53.8222
53.8196
53.817
53.8144
53.8119
53.8093
53.8067
53.8041
53.8016
53.799
53.7964
53.7938
53.7913
53.7887
53.7861
53.7835
53.781
53.7784
53.7758
53.7733
53.7707
53.7681
53.7656
53.763
53.7604
53.7579
53.7553
53.7527
53.7501
53.7476
53.745
53.7424
53.7399
53.7373
53.7348
53.7322
53.7296
53.7271
53.7245
53.7219
53.7194
53.7168
53.7142
53.7117
53.7091
53.7066
53.704
53.7014
53.6989
53.6963
53.6938
53.6912
53.6886
53.6861
53.6835
53.681
53.6784
53.6759
53.6733
53.6707
53.6682
53.6656
53.6631
53.6605
53.658
53.6554
53.6529
53.6503
53.6478
53.6452
53.6427
53.6401
53.6376
53.635
53.6325
53.6299
53.6274
53.6248
53.6223
53.6197
53.6172
53.6146
53.6121
53.6095
53.607
53.6044
53.6019
53.5993
53.5968
53.5942
53.5917
53.5892
53.5866
53.5841
53.5815
53.579
53.5764
53.5739
53.5714
53.5688
53.5663
53.5637
53.5612
53.5587
53.5561
53.5536
53.551
53.5485
53.546
53.5434
53.5409
53.5384
53.5358
53.5333
53.5307
53.5282
53.5257
53.5231
53.5206
53.5181
53.5155
53.513
53.5105
53.5079
53.5054
53.5029
53.5003
53.4978
53.4953
53.4928
53.4902
53.4877
53.4852
53.4826
53.4801
53.4776
53.4751
53.4725
53.47
53.4675
53.4649
53.4624
53.4599
53.4574
53.4548
53.4523
53.4498
53.4473
53.4448
53.4422
53.4397
53.4372
53.4347
53.4321
53.4296
53.4271
53.4246
53.4221
53.4195
53.417
53.4145
53.412
53.4095
53.4069
53.4044
53.4019
53.3994
53.3969
53.3944
53.3919
53.3893
53.3868
53.3843
53.3818
53.3793
53.3768
53.3743
53.3717
53.3692
53.3667
53.3642
53.3617
53.3592
53.3567
53.3542
53.3517
53.3491
53.3466
53.3441
53.3416
53.3391
53.3366
53.3341
53.3316
53.3291
53.3266
53.3241
53.3216
53.3191
53.3166
53.3141
53.3115
53.309
53.3065
53.304
53.3015
53.299
53.2965
53.294
53.2915
53.289
53.2865
53.284
53.2815
53.279
53.2765
53.274
53.2715
53.269
53.2665
53.264
53.2615
53.259
53.2566
53.2541
53.2516
53.2491
53.2466
53.2441
53.2416
53.2391
53.2366
53.2341
53.2316
53.2291
53.2266
53.2241
53.2216
53.2192
53.2167
53.2142
53.2117
53.2092
53.2067
53.2042
53.2017
53.1992
53.1968
53.1943
53.1918
53.1893
53.1868
53.1843
53.1818
53.1794
53.1769
53.1744
53.1719
53.1694
53.1669
53.1645
53.162
53.1595
53.157
53.1545
53.1521
53.1496
53.1471
53.1446
53.1421
53.1397
53.1372
53.1347
53.1322
53.1297
53.1273
53.1248
53.1223
53.1198
53.1174
53.1149
53.1124
53.1099
53.1075
53.105
53.1025
53.1
53.0976
53.0951
53.0926
53.0902
53.0877
53.0852
53.0827
53.0803
53.0778
53.0753
53.0729
53.0704
53.0679
53.0655
53.063
53.0605
53.0581
53.0556
53.0531
53.0507
53.0482
53.0457
53.0433
53.0408
53.0383
53.0359
53.0334
53.0309
53.0285
53.026
53.0236
53.0211
53.0186
53.0162
53.0137
53.0113
53.0088
53.0063
53.0039
53.0014
52.999
52.9965
52.994
52.9916
52.9891
52.9867
52.9842
52.9818
52.9793
52.9769
52.9744
52.9719
52.9695
52.967
52.9646
52.9621
52.9597
52.9572
52.9548
52.9523
52.9499
52.9474
52.945
52.9425
52.9401
52.9376
52.9352
52.9327
52.9303
52.9278
52.9254
52.9229
52.9205
52.918
52.9156
52.9132
52.9107
52.9083
52.9058
52.9034
52.9009
52.8985
52.896
52.8936
52.8912
52.8887
52.8863
52.8838
52.8814
52.8789
52.8765
52.8741
52.8716
52.8692
52.8668
52.8643
52.8619
52.8594
52.857
52.8546
52.8521
52.8497
52.8473
52.8448
52.8424
52.8399
52.8375
52.8351
52.8326
52.8302
52.8278
52.8253
52.8229
52.8205
52.8181
52.8156
52.8132
52.8108
52.8083
52.8059
52.8035
52.801
52.7986
52.7962
52.7938
52.7913
52.7889
52.7865
52.784
52.7816
52.7792
52.7768
52.7743
52.7719
52.7695
52.7671
52.7646
52.7622
52.7598
52.7574
52.755
52.7525
52.7501
52.7477
52.7453
52.7428
52.7404
52.738
52.7356
52.7332
52.7308
52.7283
52.7259
52.7235
52.7211
52.7187
52.7162
52.7138
52.7114
52.709
52.7066
52.7042
52.7018
52.6993
52.6969
52.6945
52.6921
52.6897
52.6873
52.6849
52.6825
52.68
52.6776
52.6752
52.6728
52.6704
52.668
52.6656
52.6632
52.6608
52.6584
52.6559
52.6535
52.6511
52.6487
52.6463
52.6439
52.6415
52.6391
52.6367
52.6343
52.6319
52.6295
52.6271
52.6247
52.6223
52.6199
52.6175
52.6151
52.6127
52.6103
52.6079
52.6055
52.6031
52.6007
52.5983
52.5959
52.5935
52.5911
52.5887
52.5863
52.5839
52.5815
52.5791
52.5767
52.5743
52.5719
52.5695
52.5671
52.5647
52.5623
52.5599
52.5575
52.5551
52.5528
52.5504
52.548
52.5456
52.5432
52.5408
52.5384
52.536
52.5336
52.5312
52.5288
52.5265
52.5241
52.5217
52.5193
52.5169
52.5145
52.5121
52.5098
52.5074
52.505
52.5026
52.5002
52.4978
52.4954
52.4931
52.4907
52.4883
52.4859
52.4835
52.4811
52.4788
52.4764
52.474
52.4716
52.4692
52.4669
52.4645
52.4621
52.4597
52.4574
52.455
52.4526
52.4502
52.4478
52.4455
52.4431
52.4407
52.4383
52.436
52.4336
52.4312
52.4288
52.4265
52.4241
52.4217
52.4193
52.417
52.4146
52.4122
52.4099
52.4075
52.4051
52.4028
52.4004
52.398
52.3956
52.3933
52.3909
52.3885
52.3862
52.3838
52.3814
52.3791
52.3767
52.3743
52.372
52.3696
52.3672
52.3649
52.3625
52.3602
52.3578
52.3554
52.3531
52.3507
52.3483
52.346
52.3436
52.3413
52.3389
52.3365
52.3342
52.3318
52.3295
52.3271
52.3247
52.3224
52.32
52.3177
52.3153
52.313
52.3106
52.3082
52.3059
52.3035
52.3012
52.2988
52.2965
52.2941
52.2918
52.2894
52.2871
52.2847
52.2823
52.28
52.2776
52.2753
52.2729
52.2706
52.2682
52.2659
52.2635
52.2612
52.2588
52.2565
52.2542
52.2518
52.2495
52.2471
52.2448
52.2424
52.2401
52.2377
52.2354
52.233
52.2307
52.2284
52.226
52.2237
52.2213
52.219
52.2166
52.2143
52.212
52.2096
52.2073
52.2049
52.2026
52.2003
52.1979
52.1956
52.1932
52.1909
52.1886
52.1862
52.1839
52.1815
52.1792
52.1769
52.1745
52.1722
52.1699
52.1675
52.1652
52.1629
52.1605
52.1582
52.1559
52.1535
52.1512
52.1489
52.1465
52.1442
52.1419
52.1395
52.1372
52.1349
52.1326
52.1302
52.1279
52.1256
52.1232
52.1209
52.1186
52.1163
52.1139
52.1116
52.1093
52.107
52.1046
52.1023
52.1
52.0977
52.0953
52.093
52.0907
52.0884
52.086
52.0837
52.0814
52.0791
52.0768
52.0744
52.0721
52.0698
52.0675
52.0652
52.0628
52.0605
52.0582
52.0559
52.0536
52.0512
52.0489
52.0466
52.0443
52.042
52.0397
52.0374
52.035
52.0327
52.0304
52.0281
52.0258
52.0235
52.0212
52.0188
52.0165
52.0142
52.0119
52.0096
52.0073
52.005
52.0027
52.0004
51.998
51.9957
51.9934
51.9911
51.9888
51.9865
51.9842
51.9819
51.9796
51.9773
51.975
51.9727
51.9704
51.9681
51.9658
51.9635
51.9612
51.9588
51.9565
51.9542
51.9519
51.9496
51.9473
51.945
51.9427
51.9404
51.9381
51.9358
51.9335
51.9312
51.9289
51.9266
51.9243
51.922
51.9197
51.9175
51.9152
51.9129
51.9106
51.9083
51.906
51.9037
51.9014
51.8991
51.8968
51.8945
51.8922
51.8899
51.8876
51.8853
51.883
51.8807
51.8785
51.8762
51.8739
51.8716
51.8693
51.867
51.8647
51.8624
51.8601
51.8579
51.8556
51.8533
51.851
51.8487
51.8464
51.8441
51.8418
51.8396
51.8373
51.835
51.8327
51.8304
51.8281
51.8259
51.8236
51.8213
51.819
51.8167
51.8145
51.8122
51.8099
51.8076
51.8053
51.8031
51.8008
51.7985
51.7962
51.7939
51.7917
51.7894
51.7871
51.7848
51.7826
51.7803
51.778
51.7757
51.7734
51.7712
51.7689
51.7666
51.7644
51.7621
51.7598
51.7575
51.7553
51.753
51.7507
51.7484
51.7462
51.7439
51.7416
51.7394
51.7371
51.7348
51.7326
51.7303
51.728
51.7258
51.7235
51.7212
51.719
51.7167
51.7144
51.7122
51.7099
51.7076
51.7054
51.7031
51.7008
51.6986
51.6963
51.694
51.6918
51.6895
51.6873
51.685
51.6827
51.6805
51.6782
51.676
51.6737
51.6714
51.6692
51.6669
51.6647
51.6624
51.6601
51.6579
51.6556
51.6534
51.6511
51.6489
51.6466
51.6444
51.6421
51.6398
51.6376
51.6353
51.6331
51.6308
51.6286
51.6263
51.6241
51.6218
51.6196
51.6173
51.6151
51.6128
51.6106
51.6083
51.6061
51.6038
51.6016
51.5993
51.5971
51.5948
51.5926
51.5903
51.5881
51.5858
51.5836
51.5813
51.5791
51.5769
51.5746
51.5724
51.5701
51.5679
51.5656
51.5634
51.5612
51.5589
51.5567
51.5544
51.5522
51.5499
51.5477
51.5455
51.5432
51.541
51.5387
51.5365
51.5343
51.532
51.5298
51.5276
51.5253
51.5231
51.5208
51.5186
51.5164
51.5141
51.5119
51.5097
51.5074
51.5052
51.503
51.5007
51.4985
51.4963
51.494
51.4918
51.4896
51.4873
51.4851
51.4829
51.4807
51.4784
51.4762
51.474
51.4717
51.4695
51.4673
51.4651
51.4628
51.4606
51.4584
51.4562
51.4539
51.4517
51.4495
51.4472
51.445
51.4428
51.4406
51.4384
51.4361
51.4339
51.4317
51.4295
51.4272
51.425
51.4228
51.4206
51.4184
51.4161
51.4139
51.4117
51.4095
51.4073
51.405
51.4028
51.4006
51.3984
51.3962
51.394
51.3917
51.3895
51.3873
51.3851
51.3829
51.3807
51.3785
51.3762
51.374
51.3718
51.3696
51.3674
51.3652
51.363
51.3608
51.3585
51.3563
51.3541
51.3519
51.3497
51.3475
51.3453
51.3431
51.3409
51.3387
51.3364
51.3342
51.332
51.3298
51.3276
51.3254
51.3232
51.321
51.3188
51.3166
51.3144
51.3122
51.31
51.3078
51.3056
51.3034
51.3012
51.299
51.2968
51.2946
51.2924
51.2902
51.288
51.2858
51.2836
51.2814
51.2792
51.277
51.2748
51.2726
51.2704
51.2682
51.266
51.2638
51.2616
51.2594
51.2572
51.255
51.2528
51.2506
51.2484
51.2462
51.244
51.2418
51.2397
51.2375
51.2353
51.2331
51.2309
51.2287
51.2265
51.2243
51.2221
51.2199
51.2177
51.2156
51.2134
51.2112
51.209
51.2068
51.2046
51.2024
51.2002
51.1981
51.1959
51.1937
51.1915
51.1893
51.1871
51.1849
51.1828
51.1806
51.1784
51.1762
51.174
51.1719
51.1697
51.1675
51.1653
51.1631
51.1609
51.1588
51.1566
51.1544
51.1522
51.1501
51.1479
51.1457
51.1435
51.1413
51.1392
51.137
51.1348
51.1326
51.1305
51.1283
51.1261
51.1239
51.1218
51.1196
51.1174
51.1152
51.1131
51.1109
51.1087
51.1066
51.1044
51.1022
51.1
51.0979
51.0957
51.0935
51.0914
51.0892
51.087
51.0849
51.0827
51.0805
51.0783
51.0762
51.074
51.0718
51.0697
51.0675
51.0654
51.0632
51.061
51.0589
51.0567
51.0545
51.0524
51.0502
51.048
51.0459
51.0437
51.0416
51.0394
51.0372
51.0351
51.0329
51.0308
51.0286
51.0264
51.0243
51.0221
51.02
51.0178
51.0156
51.0135
51.0113
51.0092
51.007
51.0049
51.0027
51.0006
50.9984
50.9962
50.9941
50.9919
50.9898
50.9876
50.9855
50.9833
50.9812
50.979
50.9769
50.9747
50.9726
50.9704
50.9683
50.9661
50.964
50.9618
50.9597
50.9575
50.9554
50.9532
50.9511
50.9489
50.9468
50.9446
50.9425
50.9403
50.9382
50.9361
50.9339
50.9318
50.9296
50.9275
50.9253
50.9232
50.9211
50.9189
50.9168
50.9146
50.9125
50.9103
50.9082
50.9061
50.9039
50.9018
50.8996
50.8975
50.8954
50.8932
50.8911
50.889
50.8868
50.8847
50.8825
50.8804
50.8783
50.8761
50.874
50.8719
50.8697
50.8676
50.8655
50.8633
50.8612
50.8591
50.8569
50.8548
50.8527
50.8505
50.8484
50.8463
50.8441
50.842
50.8399
50.8378
50.8356
50.8335
50.8314
50.8292
50.8271
50.825
50.8229
50.8207
50.8186
50.8165
50.8144
50.8122
50.8101
50.808
50.8059
50.8037
50.8016
50.7995
50.7974
50.7952
50.7931
50.791
50.7889
50.7868
50.7846
50.7825
50.7804
50.7783
50.7761
50.774
50.7719
50.7698
50.7677
50.7656
50.7634
50.7613