# vtk DataFile Version 2.0
vtk output
ASCII
DATASET STRUCTURED_GRID
DIMENSIONS 50 10 30
POINTS 15000 float
0 0 0
1 0 0
2 0 0
3 0 0
4 0 0
5 0 0
6 0 0
7 0 0
8 0 0
9 0 0
10 0 0
11 0 0
12 0 0
13 0 0
14 0 0
15 0 0
16 0 0
17 0 0
18 0 0
19 0 0
20 0 0
21 0 0
22 0 0
23 0 0
24 0 0
25 0 0
26 0 0
27 0 0
28 0 0
29 0 0
30 0 0
31 0 0
32 0 0
33 0 0
34 0 0
35 0 0
36 0 0
37 0 0
38 0 0
39 0 0
40 0 0
41 0 0
42 0 0
43 0 0
44 0 0
45 0 0
46 0 0
47 0 0
48 0 0
49 0 0
0 1 0
1 1 0
2 1 0
3 1 0
4 1 0
5 1 0
6 1 0
7 1 0
8 1 0
9 1 0
10 1 0
11 1 0
12 1 0
13 1 0
14 1 0
15 1 0
16 1 0
17 1 0
18 1 0
19 1 0
20 1 0
21 1 0
22 1 0
23 1 0
24 1 0
25 1 0
26 1 0
27 1 0
28 1 0
29 1 0
30 1 0
31 1 0
32 1 0
33 1 0
34 1 0
35 1 0
36 1 0
37 1 0
38 1 0
39 1 0
40 1 0
41 1 0
42 1 0
43 1 0
44 1 0
45 1 0
46 1 0
47 1 0
48 1 0
49 1 0
0 2 0
1 2 0
2 2 0
3 2 0
4 2 0
5 2 0
6 2 0
7 2 0
8 2 0
9 2 0
10 2 0
11 2 0
12 2 0
13 2 0
14 2 0
15 2 0
16 2 0
17 2 0
18 2 0
19 2 0
20 2 0
21 2 0
22 2 0
23 2 0
24 2 0
25 2 0
26 2 0
27 2 0
28 2 0
29 2 0
30 2 0
31 2 0
32 2 0
33 2 0
34 2 0
35 2 0
36 2 0
37 2 0
38 2 0
39 2 0
40 2 0
41 2 0
42 2 0
43 2 0
44 2 0
45 2 0
46 2 0
47 2 0
48 2 0
49 2 0
0 3 0
1 3 0
2 3 0
3 3 0
4 3 0
5 3 0
6 3 0
7 3 0
8 3 0
9 3 0
10 3 0
11 3 0
12 3 0
13 3 0
14 3 0
15 3 0
16 3 0
17 3 0
18 3 0
19 3 0
20 3 0
21 3 0
22 3 0
23 3 0
24 3 0
25 3 0
26 3 0
27 3 0
28 3 0
29 3 0
30 3 0
31 3 0
32 3 0
33 3 0
34 3 0
35 3 0
36 3 0
37 3 0
38 3 0
39 3 0
40 3 0
41 3 0
42 3 0
43 3 0
44 3 0
45 3 0
46 3 0
47 3 0
48 3 0
49 3 0
0 4 0
1 4 0
2 4 0
3 4 0
4 4 0
5 4 0
6 4 0
7 4 0
8 4 0
9 4 0
10 4 0
11 4 0
12 4 0
13 4 0
14 4 0
15 4 0
16 4 0
17 4 0
18 4 0
19 4 0
20 4 0
21 4 0
22 4 0
23 4 0
24 4 0
25 4 0
26 4 0
27 4 0
28 4 0
29 4 0
30 4 0
31 4 0
32 4 0
33 4 0
34 4 0
35 4 0
36 4 0
37 4 0
38 4 0
39 4 0
40 4 0
41 4 0
42 4 0
43 4 0
44 4 0
45 4 0
46 4 0
47 4 0
48 4 0
49 4 0
0 5 0
1 5 0
2 5 0
3 5 0
4 5 0
5 5 0
6 5 0
7 5 0
8 5 0
9 5 0
10 5 0
11 5 0
12 5 0
13 5 0
14 5 0
15 5 0
16 5 0
17 5 0
18 5 0
19 5 0
20 5 0
21 5 0
22 5 0
23 5 0
24 5 0
25 5 0
26 5 0
27 5 0
28 5 0
29 5 0
30 5 0
31 5 0
32 5 0
33 5 0
34 5 0
35 5 0
36 5 0
37 5 0
38 5 0
39 5 0
40 5 0
41 5 0
42 5 0
43 5 0
44 5 0
45 5 0
46 5 0
47 5 0
48 5 0
49 5 0
0 6 0
1 6 0
2 6 0
3 6 0
4 6 0
5 6 0
6 6 0
7 6 0
8 6 0
9 6 0
10 6 0
11 6 0
12 6 0
13 6 0
14 6 0
15 6 0
16 6 0
17 6 0
18 6 0
19 6 0
20 6 0
21 6 0
22 6 0
23 6 0
24 6 0
25 6 0
26 6 0
27 6 0
28 6 0
29 6 0
30 6 0
31 6 0
32 6 0
33 6 0
34 6 0
35 6 0
36 6 0
37 6 0
38 6 0
39 6 0
40 6 0
41 6 0
42 6 0
43 6 0
44 6 0
45 6 0
46 6 0
47 6 0
48 6 0
49 6 0
0 7 0
1 7 0
2 7 0
3 7 0
4 7 0
5 7 0
6 7 0
7 7 0
8 7 0
9 7 0
10 7 0
11 7 0
12 7 0
13 7 0
14 7 0
15 7 0
16 7 0
17 7 0
18 7 0
19 7 0
20 7 0
21 7 0
22 7 0
23 7 0
24 7 0
25 7 0
26 7 0
27 7 0
28 7 0
29 7 0
30 7 0
31 7 0
32 7 0
33 7 0
34 7 0
35 7 0
36 7 0
37 7 0
38 7 0
39 7 0
40 7 0
41 7 0
42 7 0
43 7 0
44 7 0
45 7 0
46 7 0
47 7 0
48 7 0
49 7 0
0 8 0
1 8 0
2 8 0
3 8 0
4 8 0
5 8 0
6 8 0
7 8 0
8 8 0
9 8 0
10 8 0
11 8 0
12 8 0
13 8 0
14 8 0
15 8 0
16 8 0
17 8 0
18 8 0
19 8 0
20 8 0
21 8 0
22 8 0
23 8 0
24 8 0
25 8 0
26 8 0
27 8 0
28 8 0
29 8 0
30 8 0
31 8 0
32 8 0
33 8 0
34 8 0
35 8 0
36 8 0
37 8 0
38 8 0
39 8 0
40 8 0
41 8 0
42 8 0
43 8 0
44 8 0
45 8 0
46 8 0
47 8 0
48 8 0
49 8 0
0 9 0
1 9 0
2 9 0
3 9 0
4 9 0
5 9 0
6 9 0
7 9 0
8 9 0
9 9 0
10 9 0
11 9 0
12 9 0
13 9 0
14 9 0
15 9 0
16 9 0
17 9 0
18 9 0
19 9 0
20 9 0
21 9 0
22 9 0
23 9 0
24 9 0
25 9 0
26 9 0
27 9 0
28 9 0
29 9 0
30 9 0
31 9 0
32 9 0
33 9 0
34 9 0
35 9 0
36 9 0
37 9 0
38 9 0
39 9 0
40 9 0
41 9 0
42 9 0
43 9 0
44 9 0
45 9 0
46 9 0
47 9 0
48 9 0
49 9 0
0 0 1
1 0 1
2 0 1
3 0 1
4 0 1
5 0 1
6 0 1
7 0 1
8 0 1
9 0 1
10 0 1
11 0 1
12 0 1
13 0 1
14 0 1
15 0 1
16 0 1
17 0 1
18 0 1
19 0 1
20 0 1
21 0 1
22 0 1
23 0 1
24 0 1
25 0 1
26 0 1
27 0 1
28 0 1
29 0 1
30 0 1
31 0 1
32 0 1
33 0 1
34 0 1
35 0 1
36 0 1
37 0 1
38 0 1
39 0 1
40 0 1
41 0 1
42 0 1
43 0 1
44 0 1
45 0 1
46 0 1
47 0 1
48 0 1
49 0 1
0 1 1
1 1 1
2 1 1
3 1 1
4 1 1
5 1 1
6 1 1
7 1 1
8 1 1
9 1 1
10 1 1
11 1 1
12 1 1
13 1 1
14 1 1
15 1 1
16 1 1
17 1 1
18 1 1
19 1 1
20 1 1
21 1 1
22 1 1
23 1 1
24 1 1
25 1 1
26 1 1
27 1 1
28 1 1
29 1 1
30 1 1
31 1 1
32 1 1
33 1 1
34 1 1
35 1 1
36 1 1
37 1 1
38 1 1
39 1 1
40 1 1
41 1 1
42 1 1
43 1 1
44 1 1
45 1 1
46 1 1
47 1 1
48 1 1
49 1 1
0 2 1
1 2 1
2 2 1
3 2 1
4 2 1
5 2 1
6 2 1
7 2 1
8 2 1
9 2 1
10 2 1
11 2 1
12 2 1
13 2 1
14 2 1
15 2 1
16 2 1
17 2 1
18 2 1
19 2 1
20 2 1
21 2 1
22 2 1
23 2 1
24 2 1
25 2 1
26 2 1
27 2 1
28 2 1
29 2 1
30 2 1
31 2 1
32 2 1
33 2 1
34 2 1
35 2 1
36 2 1
37 2 1
38 2 1
39 2 1
40 2 1
41 2 1
42 2 1
43 2 1
44 2 1
45 2 1
46 2 1
47 2 1
48 2 1
49 2 1
0 3 1
1 3 1
2 3 1
3 3 1
4 3 1
5 3 1
6 3 1
7 3 1
8 3 1
9 3 1
10 3 1
11 3 1
12 3 1
13 3 1
14 3 1
15 3 1
16 3 1
17 3 1
18 3 1
19 3 1
20 3 1
21 3 1
22 3 1
23 3 1
24 3 1
25 3 1
26 3 1
27 3 1
28 3 1
29 3 1
30 3 1
31 3 1
32 3 1
33 3 1
34 3 1
35 3 1
36 3 1
37 3 1
38 3 1
39 3 1
40 3 1
41 3 1
42 3 1
43 3 1
44 3 1
45 3 1
46 3 1
47 3 1
48 3 1
49 3 1
0 4 1
1 4 1
2 4 1
3 4 1
4 4 1
5 4 1
6 4 1
7 4 1
8 4 1
9 4 1
10 4 1
11 4 1
12 4 1
13 4 1
14 4 1
15 4 1
16 4 1
17 4 1
18 4 1
19 4 1
20 4 1
21 4 1
22 4 1
23 4 1
24 4 1
25 4 1
26 4 1
27 4 1
28 4 1
29 4 1
30 4 1
31 4 1
32 4 1
33 4 1
34 4 1
35 4 1
36 4 1
37 4 1
38 4 1
39 4 1
40 4 1
41 4 1
42 4 1
43 4 1
44 4 1
45 4 1
46 4 1
47 4 1
48 4 1
49 4 1
0 5 1
1 5 1
2 5 1
3 5 1
4 5 1
5 5 1
6 5 1
7 5 1
8 5 1
9 5 1
10 5 1
11 5 1
12 5 1
13 5 1
14 5 1
15 5 1
16 5 1
17 5 1
18 5 1
19 5 1
20 5 1
21 5 1
22 5 1
23 5 1
24 5 1
25 5 1
26 5 1
27 5 1
28 5 1
29 5 1
30 5 1
31 5 1
32 5 1
33 5 1
34 5 1
35 5 1
36 5 1
37 5 1
38 5 1
39 5 1
40 5 1
41 5 1
42 5 1
43 5 1
44 5 1
45 5 1
46 5 1
47 5 1
48 5 1
49 5 1
0 6 1
1 6 1
2 6 1
3 6 1
4 6 1
5 6 1
6 6 1
7 6 1
8 6 1
9 6 1
10 6 1
11 6 1
12 6 1
13 6 1
14 6 1
15 6 1
16 6 1
17 6 1
18 6 1
19 6 1
20 6 1
21 6 1
22 6 1
23 6 1
24 6 1
25 6 1
26 6 1
27 6 1
28 6 1
29 6 1
30 6 1
31 6 1
32 6 1
33 6 1
34 6 1
35 6 1
36 6 1
37 6 1
38 6 1
39 6 1
40 6 1
41 6 1
42 6 1
43 6 1
44 6 1
45 6 1
46 6 1
47 6 1
48 6 1
49 6 1
0 7 1
1 7 1
2 7 1
3 7 1
4 7 1
5 7 1
6 7 1
7 7 1
8 7 1
9 7 1
10 7 1
11 7 1
12 7 1
13 7 1
14 7 1
15 7 1
16 7 1
17 7 1
18 7 1
19 7 1
20 7 1
21 7 1
22 7 1
23 7 1
24 7 1
25 7 1
26 7 1
27 7 1
28 7 1
29 7 1
30 7 1
31 7 1
32 7 1
33 7 1
34 7 1
35 7 1
36 7 1
37 7 1
38 7 1
39 7 1
40 7 1
41 7 1
42 7 1
43 7 1
44 7 1
45 7 1
46 7 1
47 7 1
48 7 1
49 7 1
0 8 1
1 8 1
2 8 1
3 8 1
4 8 1
5 8 1
6 8 1
7 8 1
8 8 1
9 8 1
10 8 1
11 8 1
12 8 1
13 8 1
14 8 1
15 8 1
16 8 1
17 8 1
18 8 1
19 8 1
20 8 1
21 8 1
22 8 1
23 8 1
24 8 1
25 8 1
26 8 1
27 8 1
28 8 1
29 8 1
30 8 1
31 8 1
32 8 1
33 8 1
34 8 1
35 8 1
36 8 1
37 8 1
38 8 1
39 8 1
40 8 1
41 8 1
42 8 1
43 8 1
44 8 1
45 8 1
46 8 1
47 8 1
48 8 1
49 8 1
0 9 1
1 9 1
2 9 1
3 9 1
4 9 1
5 9 1
6 9 1
7 9 1
8 9 1
9 9 1
10 9 1
11 9 1
12 9 1
13 9 1
14 9 1
15 9 1
16 9 1
17 9 1
18 9 1
19 9 1
20 9 1
21 9 1
22 9 1
23 9 1
24 9 1
25 9 1
26 9 1
27 9 1
28 9 1
29 9 1
30 9 1
31 9 1
32 9 1
33 9 1
34 9 1
35 9 1
36 9 1
37 9 1
38 9 1
39 9 1
40 9 1
41 9 1
42 9 1
43 9 1
44 9 1
45 9 1
46 9 1
47 9 1
48 9 1
49 9 1
0 0 2
1 0 2
2 0 2
3 0 2
4 0 2
5 0 2
6 0 2
7 0 2
8 0 2
9 0 2
10 0 2
11 0 2
12 0 2
13 0 2
14 0 2
15 0 2
16 0 2
17 0 2
18 0 2
19 0 2
20 0 2
21 0 2
22 0 2
23 0 2
24 0 2
25 0 2
26 0 2
27 0 2
28 0 2
29 0 2
30 0 2
31 0 2
32 0 2
33 0 2
34 0 2
35 0 2
36 0 2
37 0 2
38 0 2
39 0 2
40 0 2
41 0 2
42 0 2
43 0 2
44 0 2
45 0 2
46 0 2
47 0 2
48 0 2
49 0 2
0 1 2
1 1 2
2 1 2
3 1 2
4 1 2
5 1 2
6 1 2
7 1 2
8 1 2
9 1 2
10 1 2
11 1 2
12 1 2
13 1 2
14 1 2
15 1 2
16 1 2
17 1 2
18 1 2
19 1 2
20 1 2
21 1 2
22 1 2
23 1 2
24 1 2
25 1 2
26 1 2
27 1 2
28 1 2
29 1 2
30 1 2
31 1 2
32 1 2
33 1 2
34 1 2
35 1 2
36 1 2
37 1 2
38 1 2
39 1 2
40 1 2
41 1 2
42 1 2
43 1 2
44 1 2
45 1 2
46 1 2
47 1 2
48 1 2
49 1 2
0 2 2
1 2 2
2 2 2
3 2 2
4 2 2
5 2 2
6 2 2
7 2 2
8 2 2
9 2 2
10 2 2
11 2 2
12 2 2
13 2 2
14 2 2
15 2 2
16 2 2
17 2 2
18 2 2
19 2 2
20 2 2
21 2 2
22 2 2
23 2 2
24 2 2
25 2 2
26 2 2
27 2 2
28 2 2
29 2 2
30 2 2
31 2 2
32 2 2
33 2 2
34 2 2
35 2 2
36 2 2
37 2 2
38 2 2
39 2 2
40 2 2
41 2 2
42 2 2
43 2 2
44 2 2
45 2 2
46 2 2
47 2 2
48 2 2
49 2 2
0 3 2
1 3 2
2 3 2
3 3 2
4 3 2
5 3 2
6 3 2
7 3 2
8 3 2
9 3 2
10 3 2
11 3 2
12 3 2
13 3 2
14 3 2
15 3 2
16 3 2
17 3 2
18 3 2
19 3 2
20 3 2
21 3 2
22 3 2
23 3 2
24 3 2
25 3 2
26 3 2
27 3 2
28 3 2
29 3 2
30 3 2
31 3 2
32 3 2
33 3 2
34 3 2
35 3 2
36 3 2
37 3 2
38 3 2
39 3 2
40 3 2
41 3 2
42 3 2
43 3 2
44 3 2
45 3 2
46 3 2
47 3 2
48 3 2
49 3 2
0 4 2
1 4 2
2 4 2
3 4 2
4 4 2
5 4 2
6 4 2
7 4 2
8 4 2
9 4 2
10 4 2
11 4 2
12 4 2
13 4 2
14 4 2
15 4 2
16 4 2
17 4 2
18 4 2
19 4 2
20 4 2
21 4 2
22 4 2
23 4 2
24 4 2
25 4 2
26 4 2
27 4 2
28 4 2
29 4 2
30 4 2
31 4 2
32 4 2
33 4 2
34 4 2
35 4 2
36 4 2
37 4 2
38 4 2
39 4 2
40 4 2
41 4 2
42 4 2
43 4 2
44 4 2
45 4 2
46 4 2
47 4 2
48 4 2
49 4 2
0 5 2
1 5 2
2 5 2
3 5 2
4 5 2
5 5 2
6 5 2
7 5 2
8 5 2
9 5 2
10 5 2
11 5 2
12 5 2
13 5 2
14 5 2
15 5 2
16 5 2
17 5 2
18 5 2
19 5 2
20 5 2
21 5 2
22 5 2
23 5 2
24 5 2
25 5 2
26 5 2
27 5 2
28 5 2
29 5 2
30 5 2
31 5 2
32 5 2
33 5 2
34 5 2
35 5 2
36 5 2
37 5 2
38 5 2
39 5 2
40 5 2
41 5 2
42 5 2
43 5 2
44 5 2
45 5 2
46 5 2
47 5 2
48 5 2
49 5 2
0 6 2
1 6 2
2 6 2
3 6 2
4 6 2
5 6 2
6 6 2
7 6 2
8 6 2
9 6 2
10 6 2
11 6 2
12 6 2
13 6 2
14 6 2
15 6 2
16 6 2
17 6 2
18 6 2
19 6 2
20 6 2
21 6 2
22 6 2
23 6 2
24 6 2
25 6 2
26 6 2
27 6 2
28 6 2
29 6 2
30 6 2
31 6 2
32 6 2
33 6 2
34 6 2
35 6 2
36 6 2
37 6 2
38 6 2
39 6 2
40 6 2
41 6 2
42 6 2
43 6 2
44 6 2
45 6 2
46 6 2
47 6 2
48 6 2
49 6 2
0 7 2
1 7 2
2 7 2
3 7 2
4 7 2
5 7 2
6 7 2
7 7 2
8 7 2
9 7 2
10 7 2
11 7 2
12 7 2
13 7 2
14 7 2
15 7 2
16 7 2
17 7 2
18 7 2
19 7 2
20 7 2
21 7 2
22 7 2
23 7 2
24 7 2
25 7 2
26 7 2
27 7 2
28 7 2
29 7 2
30 7 2
31 7 2
32 7 2
33 7 2
34 7 2
35 7 2
36 7 2
37 7 2
38 7 2
39 7 2
40 7 2
41 7 2
42 7 2
43 7 2
44 7 2
45 7 2
46 7 2
47 7 2
48 7 2
49 7 2
0 8 2
1 8 2
2 8 2
3 8 2
4 8 2
5 8 2
6 8 2
7 8 2
8 8 2
9 8 2
10 8 2
11 8 2
12 8 2
13 8 2
14 8 2
15 8 2
16 8 2
17 8 2
18 8 2
19 8 2
20 8 2
21 8 2
22 8 2
23 8 2
24 8 2
25 8 2
26 8 2
27 8 2
28 8 2
29 8 2
30 8 2
31 8 2
32 8 2
33 8 2
34 8 2
35 8 2
36 8 2
37 8 2
38 8 2
39 8 2
40 8 2
41 8 2
42 8 2
43 8 2
44 8 2
45 8 2
46 8 2
47 8 2
48 8 2
49 8 2
0 9 2
1 9 2
2 9 2
3 9 2
4 9 2
[...]
POINT_DATA 15000
SCALARS sol424 float
LOOKUP_TABLE default
58.4505
58.4475
58.4444
58.4414
58.4383
58.4353
58.4323
58.4292
58.4262
58.4231
58.4201
58.417
58.414
58.4109
58.4079
58.4049
58.4018
58.3988
58.3957
58.3927
58.3896
58.3866
58.3836
58.3805
58.3775
58.3744
58.3714
58.3684
58.3653
58.3623
58.3593
58.3562
58.3532
58.3501
58.3471
58.3441
58.341
58.338
58.335
58.3319
58.3289
58.3259
58.3228
58.3198
58.3168
58.3137
58.3107
58.3077
58.3047
58.3016
58.2986
58.2956
58.2925
58.2895
58.2865
58.2835
58.2804
58.2774
58.2744
58.2714
58.2683
58.2653
58.2623
58.2593
58.2562
58.2532
58.2502
58.2472
58.2441
58.2411
58.2381
58.2351
58.2321
58.229
58.226
58.223
58.22
58.217
58.214
58.2109
58.2079
58.2049
58.2019
58.1989
58.1959
58.1928
58.1898
58.1868
58.1838
58.1808
58.1778
58.1748
58.1717
58.1687
58.1657
58.1627
58.1597
58.1567
58.1537
58.1507
58.1477
58.1447
58.1416
58.1386
58.1356
58.1326
58.1296
58.1266
58.1236
58.1206
58.1176
58.1146
58.1116
58.1086
58.1056
58.1026
58.0996
58.0966
58.0936
58.0906
58.0876
58.0846
58.0816
58.0786
58.0756
58.0726
58.0696
58.0666
58.0636
58.0606
58.0576
58.0546
58.0516
58.0486
58.0456
58.0426
58.0396
58.0366
58.0336
58.0306
58.0276
58.0246
58.0217
58.0187
58.0157
58.0127
58.0097
58.0067
58.0037
58.0007
57.9977
57.9947
57.9918
57.9888
57.9858
57.9828
57.9798
57.9768
57.9738
57.9709
57.9679
57.9649
57.9619
57.9589
57.9559
57.953
57.95
57.947
57.944
57.941
57.938
57.9351
57.9321
57.9291
57.9261
57.9231
57.9202
57.9172
57.9142
57.9112
57.9083
57.9053
57.9023
57.8993
57.8964
57.8934
57.8904
57.8874
57.8845
57.8815
57.8785
57.8755
57.8726
57.8696
57.8666
57.8637
57.8607
57.8577
57.8547
57.8518
57.8488
57.8458
57.8429
57.8399
57.8369
57.834
57.831
57.828
57.8251
57.8221
57.8191
57.8162
57.8132
57.8102
57.8073
57.8043
57.8014
57.7984
57.7954
57.7925
57.7895
57.7866
57.7836
57.7806
57.7777
57.7747
57.7718
57.7688
57.7658
57.7629
57.7599
57.757
57.754
57.7511
57.7481
57.7451
57.7422
57.7392
57.7363
57.7333
57.7304
57.7274
57.7245
57.7215
57.7186
57.7156
57.7127
57.7097
57.7068
57.7038
57.7009
57.6979
57.695
57.692
57.6891
57.6861
57.6832
57.6802
57.6773
57.6744
57.6714
57.6685
57.6655
57.6626
57.6596
57.6567
57.6537
57.6508
57.6479
57.6449
57.642
57.639
57.6361
57.6332
57.6302
57.6273
57.6243
57.6214
57.6185
57.6155
57.6126
57.6097
57.6067
57.6038
57.6008
57.5979
57.595
57.592
57.5891
57.5862
57.5832
57.5803
57.5774
57.5744
57.5715
57.5686
57.5657
57.5627
57.5598
57.5569
57.5539
57.551
57.5481
57.5452
57.5422
57.5393
57.5364
57.5334
57.5305
57.5276
57.5247
57.5217
57.5188
57.5159
57.513
57.51
57.5071
57.5042
57.5013
57.4984
57.4954
57.4925
57.4896
57.4867
57.4838
57.4808
57.4779
57.475
57.4721
57.4692
57.4662
57.4633
57.4604
57.4575
57.4546
57.4517
57.4488
57.4458
57.4429
57.44
57.4371
57.4342
57.4313
57.4284
57.4254
57.4225
57.4196
57.4167
57.4138
57.4109
57.408
57.4051
57.4022
57.3993
57.3964
57.3934
57.3905
57.3876
57.3847
57.3818
57.3789
57.376
57.3731
57.3702
57.3673
57.3644
57.3615
57.3586
57.3557
57.3528
57.3499
57.347
57.3441
57.3412
57.3383
57.3354
57.3325
57.3296
57.3267
57.3238
57.3209
57.318
57.3151
57.3122
57.3093
57.3064
57.3035
57.3006
57.2977
57.2948
57.2919
57.289
57.2862
57.2833
57.2804
57.2775
57.2746
57.2717
57.2688
57.2659
57.263
57.2601
57.2572
57.2544
57.2515
57.2486
57.2457
57.2428
57.2399
57.237
57.2341
57.2313
57.2284
57.2255
57.2226
57.2197
57.2168
57.214
57.2111
57.2082
57.2053
57.2024
57.1996
57.1967
57.1938
57.1909
57.188
57.1852
57.1823
57.1794
57.1765
57.1736
57.1708
57.1679
57.165
57.1621
57.1593
57.1564
57.1535
57.1506
57.1478
57.1449
57.142
57.1391
57.1363
57.1334
57.1305
57.1277
57.1248
57.1219
57.119
57.1162
57.1133
57.1104
57.1076
57.1047
57.1018
57.099
57.0961
57.0932
57.0904
57.0875
57.0846
57.0818
57.0789
57.076
57.0732
57.0703
57.0674
57.0646
57.0617
57.0589
57.056
57.0531
57.0503
57.0474
57.0446
57.0417
57.0388
57.036
57.0331
57.0303
57.0274
57.0246
57.0217
57.0188
57.016
57.0131
57.0103
57.0074
57.0046
57.0017
56.9989
56.996
56.9931
56.9903
56.9874
56.9846
56.9817
56.9789
56.976
56.9732
56.9703
56.9675
56.9646
56.9618
56.9589
56.9561
56.9532
56.9504
56.9476
56.9447
56.9419
56.939
56.9362
56.9333
56.9305
56.9276
56.9248
56.922
56.9191
56.9163
56.9134
56.9106
56.9077
56.9049
56.9021
56.8992
56.8964
56.8935
56.8907
56.8879
56.885
56.8822
56.8794
56.8765
56.8737
56.8708
56.868
56.8652
56.8623
56.8595
56.8567
56.8538
56.851
56.8482
56.8453
56.8425
56.8397
56.8368
56.834
56.8312
56.8283
56.8255
56.8227
56.8199
56.817
56.8142
56.8114
56.8085
56.8057
56.8029
56.8001
56.7972
56.7944
56.7916
56.7888
56.7859
56.7831
56.7803
56.7775
56.7746
56.7718
56.769
56.7662
56.7634
56.7605
56.7577
56.7549
56.7521
56.7493
56.7464
56.7436
56.7408
56.738
56.7352
56.7323
56.7295
56.7267
56.7239
56.7211
56.7183
56.7155
56.7126
56.7098
56.707
56.7042
56.7014
56.6986
56.6958
56.6929
56.6901
56.6873
56.6845
56.6817
56.6789
56.6761
56.6733
56.6705
56.6677
56.6649
56.662
56.6592
56.6564
56.6536
56.6508
56.648
56.6452
56.6424
56.6396
56.6368
56.634
56.6312
56.6284
56.6256
56.6228
56.62
56.6172
56.6144
56.6116
56.6088
56.606
56.6032
56.6004
56.5976
56.5948
56.592
56.5892
56.5864
56.5836
56.5808
56.578
56.5752
56.5724
56.5696
56.5668
56.564
56.5612
56.5584
56.5556
56.5529
56.5501
56.5473
56.5445
56.5417
56.5389
56.5361
56.5333
56.5305
56.5277
56.525
56.5222
56.5194
56.5166
56.5138
56.511
56.5082
56.5054
56.5027
56.4999
56.4971
56.4943
56.4915
56.4887
56.486
56.4832
56.4804
56.4776
56.4748
56.472
56.4693
56.4665
56.4637
56.4609
56.4581
56.4554
56.4526
56.4498
56.447
56.4443
56.4415
56.4387
56.4359
56.4331
56.4304
56.4276
56.4248
56.422
56.4193
56.4165
56.4137
56.411
56.4082
56.4054
56.4026
56.3999
56.3971
56.3943
56.3916
56.3888
56.386
56.3832
56.3805
56.3777
56.3749
56.3722
56.3694
56.3666
56.3639
56.3611
56.3583
56.3556
56.3528
56.3501
56.3473
56.3445
56.3418
56.339
56.3362
56.3335
56.3307
56.3279
56.3252
56.3224
56.3197
56.3169
56.3141
56.3114
56.3086
56.3059
56.3031
56.3004
56.2976
56.2948
56.2921
56.2893
56.2866
56.2838
56.2811
56.2783
56.2756
56.2728
56.2701
56.2673
56.2645
56.2618
56.259
56.2563
56.2535
56.2508
56.248
56.2453
56.2425
56.2398
56.237
56.2343
56.2315
56.2288
56.226
56.2233
56.2206
56.2178
56.2151
56.2123
56.2096
56.2068
56.2041
56.2013
56.1986
56.1959
56.1931
56.1904
56.1876
56.1849
56.1821
56.1794
56.1767
56.1739
56.1712
56.1684
56.1657
56.163
56.1602
56.1575
56.1548
56.152
56.1493
56.1465
56.1438
56.1411
56.1383
56.1356
56.1329
56.1301
56.1274
56.1247
56.1219
56.1192
56.1165
56.1137
56.111
56.1083
56.1056
56.1028
56.1001
56.0974
56.0946
56.0919
56.0892
56.0865
56.0837
56.081
56.0783
56.0755
56.0728
56.0701
56.0674
56.0646
56.0619
56.0592
56.0565
56.0537
56.051
56.0483
56.0456
56.0429
56.0401
56.0374
56.0347
56.032
56.0293
56.0265
56.0238
56.0211
56.0184
56.0157
56.0129
56.0102
56.0075
56.0048
56.0021
55.9994
55.9966
55.9939
55.9912
55.9885
55.9858
55.9831
55.9804
55.9777
55.9749
55.9722
55.9695
55.9668
55.9641
55.9614
55.9587
55.956
55.9533
55.9505
55.9478
55.9451
55.9424
55.9397
55.937
55.9343
55.9316
55.9289
55.9262
55.9235
55.9208
55.9181
55.9154
55.9127
55.91
55.9073
55.9046
55.9019
55.8992
55.8965
55.8938
55.8911
55.8884
55.8857
55.883
55.8803
55.8776
55.8749
55.8722
55.8695
55.8668
55.8641
55.8614
55.8587
55.856
55.8533
55.8506
55.8479
55.8452
55.8425
55.8398
55.8371
55.8344
55.8317
55.829
55.8264
55.8237
55.821
55.8183
55.8156
55.8129
55.8102
55.8075
55.8048
55.8022
55.7995
55.7968
55.7941
55.7914
55.7887
55.786
55.7833
55.7807
55.778
55.7753
55.7726
55.7699
55.7672
55.7646
55.7619
55.7592
55.7565
55.7538
55.7512
55.7485
55.7458
55.7431
55.7404
55.7378
55.7351
55.7324
55.7297
55.727
55.7244
55.7217
55.719
55.7163
55.7137
55.711
55.7083
55.7056
55.703
55.7003
55.6976
55.6949
55.6923
55.6896
55.6869
55.6843
55.6816
55.6789
55.6762
55.6736
55.6709
55.6682
55.6656
55.6629
55.6602
55.6576
55.6549
55.6522
55.6496
55.6469
55.6442
55.6416
55.6389
55.6362
55.6336
55.6309
55.6282
55.6256
55.6229
55.6203
55.6176
55.6149
55.6123
55.6096
55.6069
55.6043
55.6016
55.599
55.5963
55.5937
55.591
55.5883
55.5857
55.583
55.5804
55.5777
55.5751
55.5724
55.5697
55.5671
55.5644
55.5618
55.5591
55.5565
55.5538
55.5512
55.5485
55.5459
55.5432
55.5406
55.5379
55.5353
55.5326
55.53
55.5273
55.5247
55.522
55.5194
55.5167
55.5141
55.5114
55.5088
55.5061
55.5035
55.5008
55.4982
55.4955
55.4929
55.4903
55.4876
55.485
55.4823
55.4797
55.477
55.4744
55.4718
55.4691
55.4665
55.4638
55.4612
55.4586
55.4559
55.4533
55.4506
55.448
55.4454
55.4427
55.4401
55.4375
55.4348
55.4322
55.4295
55.4269
55.4243
55.4216
55.419
55.4164
55.4137
55.4111
55.4085
55.4058
55.4032
55.4006
55.398
55.3953
55.3927
55.3901
55.3874
55.3848
55.3822
55.3795
55.3769
55.3743
55.3717
55.369
55.3664
55.3638
55.3612
55.3585
55.3559
55.3533
55.3507
55.348
55.3454
55.3428
55.3402
55.3375
55.3349
55.3323
55.3297
55.3271
55.3244
55.3218
55.3192
55.3166
55.314
55.3113
55.3087
55.3061
55.3035
55.3009
55.2983
55.2956
55.293
55.2904
55.2878
55.2852
55.2826
55.2799
55.2773
55.2747
55.2721
55.2695
55.2669
55.2643
55.2617
55.259
55.2564
55.2538
55.2512
55.2486
55.246
55.2434
55.2408
55.2382
55.2356
55.233
55.2303
55.2277
55.2251
55.2225
55.2199
55.2173
55.2147
55.2121
55.2095
55.2069
55.2043
55.2017
55.1991
55.1965
55.1939
55.1913
55.1887
55.1861
55.1835
55.1809
55.1783
55.1757
55.1731
55.1705
55.1679
55.1653
55.1627
55.1601
55.1575
55.1549
55.1523
55.1497
55.1471
55.1445
55.1419
55.1393
55.1367
55.1341
55.1316
55.129
55.1264
55.1238
55.1212
55.1186
55.116
55.1134
55.1108
55.1082
55.1056
55.1031
55.1005
55.0979
55.0953
55.0927
55.0901
55.0875
55.0849
55.0824
55.0798
55.0772
55.0746
55.072
55.0694
55.0668
55.0643
55.0617
55.0591
55.0565
55.0539
55.0514
55.0488
55.0462
55.0436
55.041
55.0385
55.0359
55.0333
55.0307
55.0281
55.0256
55.023
55.0204
55.0178
55.0152
55.0127
55.0101
55.0075
55.0049
55.0024
54.9998
54.9972
54.9947
54.9921
54.9895
54.9869
54.9844
54.9818
54.9792
54.9766
54.9741
54.9715
54.9689
54.9664
54.9638
54.9612
54.9587
54.9561
54.9535
54.951
54.9484
54.9458
54.9433
54.9407
54.9381
54.9356
54.933
54.9304
54.9279
54.9253
54.9227
54.9202
54.9176
54.9151
54.9125
54.9099
54.9074
54.9048
54.9023
54.8997
54.8971
54.8946
54.892
54.8895
54.8869
54.8843
54.8818
54.8792
54.8767
54.8741
54.8716
54.869
54.8664
54.8639
54.8613
54.8588
54.8562
54.8537
54.8511
54.8486
54.846
54.8435
54.8409
54.8384
54.8358
54.8333
54.8307
54.8282
54.8256
54.8231
54.8205
54.818
54.8154
54.8129
54.8103
54.8078
54.8052
54.8027
54.8001
54.7976
54.7951
54.7925
54.79
54.7874
54.7849
54.7823
54.7798
54.7773
54.7747
54.7722
54.7696
54.7671
54.7645
54.762
54.7595
54.7569
54.7544
54.7519
54.7493
54.7468
54.7442
54.7417
54.7392
54.7366
54.7341
54.7316
54.729
54.7265
54.724
54.7214
54.7189
54.7164
54.7138
54.7113
54.7088
54.7062
54.7037
54.7012
54.6986
54.6961
54.6936
54.691
54.6885
54.686
54.6835
54.6809
54.6784
54.6759
54.6733
54.6708
54.6683
54.6658
54.6632
54.6607
54.6582
54.6557
54.6531
54.6506
54.6481
54.6456
54.643
54.6405
54.638
54.6355
54.633
54.6304
54.6279
54.6254
54.6229
54.6204
54.6178
54.6153
54.6128
54.6103
54.6078
54.6052
54.6027
54.6002
54.5977
54.5952
54.5927
54.5901
54.5876
54.5851
54.5826
54.5801
54.5776
54.5751
54.5726
54.57
54.5675
54.565
54.5625
54.56
54.5575
54.555
54.5525
54.55
54.5474
54.5449
54.5424
54.5399
54.5374
54.5349
54.5324
54.5299
54.5274
54.5249
54.5224
54.5199
54.5174
54.5149
54.5124
54.5099
54.5074
54.5048
54.5023
54.4998
54.4973
54.4948
54.4923
54.4898
54.4873
54.4848
54.4823
54.4798
54.4773
54.4748
54.4723
54.4698
54.4674
54.4649
54.4624
54.4599
54.4574
54.4549
54.4524
54.4499
54.4474
54.4449
54.4424
54.4399
54.4374
54.4349
54.4324
54.4299
54.4274
54.425
54.4225
54.42
54.4175
54.415
54.4125
54.41
54.4075
54.405
54.4025
54.4001
54.3976
54.3951
54.3926
54.3901
54.3876
54.3851
54.3827
54.3802
54.3777
54.3752
54.3727
54.3702
54.3678
54.3653
54.3628
54.3603
54.3578
54.3553
54.3529
54.3504
54.3479
54.3454
54.3429
54.3405
54.338
54.3355
54.333
54.3306
54.3281
54.3256
54.3231
54.3207
54.3182
54.3157
54.3132
54.3108
54.3083
54.3058
54.3033
54.3009
54.2984
54.2959
54.2934
54.291
54.2885
54.286
54.2836
54.2811
54.2786
54.2761
54.2737
54.2712
54.2687
54.2663
54.2638
54.2613
54.2589
54.2564
54.2539
54.2515
54.249
54.2465
54.2441
54.2416
54.2391
54.2367
54.2342
54.2318
54.2293
54.2268
54.2244
54.2219
54.2194
54.217
54.2145
54.2121
54.2096
54.2071
54.2047
54.2022
54.1998
54.1973
54.1949
54.1924
54.1899
54.1875
54.185
54.1826
54.1801
54.1777
54.1752
54.1728
54.1703
54.1678
54.1654
54.1629
54.1605
54.158
54.1556
54.1531
54.1507
54.1482
54.1458
54.1433
54.1409
54.1384
54.136
54.1335
54.1311
54.1286
54.1262
54.1237
54.1213
54.1189
54.1164
54.114
54.1115
54.1091
54.1066
54.1042
54.1017
54.0993
54.0969
54.0944
54.092
54.0895
54.0871
54.0846
54.0822
54.0798
54.0773
54.0749
54.0724
54.07
54.0676
54.0651
54.0627
54.0602
54.0578
54.0554
54.0529
54.0505
54.0481
54.0456
54.0432
54.0408
54.0383
54.0359
54.0335
54.031
54.0286
54.0262
54.0237
54.0213
54.0189
54.0164
54.014
54.0116
54.0091
54.0067
54.0043
54.0019
53.9994
53.997
53.9946
53.9921
53.9897
53.9873
53.9849
53.9824
53.98
53.9776
53.9752
53.9727
53.9703
53.9679
53.9655
53.963
53.9606
53.9582
53.9558
53.9533
53.9509
53.9485
53.9461
53.9437
53.9412
53.9388
53.9364
53.934
53.9316
53.9291
53.9267
53.9243
53.9219
53.9195
53.9171
53.9146
53.9122
53.9098
53.9074
53.905
53.9026
53.9002
53.8977
53.8953
53.8929
53.8905
53.8881
53.8857
53.8833
53.8809
53.8784
53.876
53.8736
53.8712
53.8688
53.8664
53.864
53.8616
53.8592
53.8568
53.8544
53.8519
53.8495
53.8471
53.8447
53.8423
53.8399
53.8375
53.8351
53.8327
53.8303
53.8279
53.8255
53.8231
53.8207
53.8183
53.8159
53.8135
53.8111
53.8087
53.8063
53.8039
53.8015
53.7991
53.7967
53.7943
53.7919
53.7895
53.7871
53.7847
53.7823
53.7799
53.7775
53.7751
53.7727
53.7703
53.7679
53.7655
53.7631
53.7607
53.7584
53.756
53.7536
53.7512
53.7488
53.7464
53.744
53.7416
53.7392
53.7368
53.7344
53.732
53.7297
53.7273
53.7249
53.7225
53.7201
53.7177
53.7153
53.7129
53.7106
53.7082
53.7058
53.7034
53.701
53.6986
53.6963
53.6939
53.6915
53.6891
53.6867
53.6843
53.682
53.6796
53.6772
53.6748
53.6724
53.6701
53.6677
53.6653
53.6629
53.6605
53.6582
53.6558
53.6534
53.651
53.6487
53.6463
53.6439
53.6415
53.6391
53.6368
53.6344
53.632
53.6297
53.6273
53.6249
53.6225
53.6202
53.6178
53.6154
53.613
53.6107
53.6083
53.6059
53.6036
53.6012
53.5988
53.5965
53.5941
53.5917
53.5893
53.587
53.5846
53.5822
53.5799
53.5775
53.5752
53.5728
53.5704
53.5681
53.5657
53.5633
53.561
53.5586
53.5562
53.5539
53.5515
53.5492
53.5468
53.5444
53.5421
53.5397
53.5373
53.535
53.5326
53.5303
53.5279
53.5256
53.5232
53.5208
53.5185
53.5161
53.5138
53.5114
53.5091
53.5067
53.5043
53.502
53.4996
53.4973
53.4949
53.4926
53.4902
53.4879
53.4855
53.4832
53.4808
53.4785
53.4761
53.4738
53.4714
53.4691
53.4667
53.4644
53.462
53.4597
53.4573
53.455
53.4526
53.4503
53.4479
53.4456
53.4432
53.4409
53.4385
53.4362
53.4339
53.4315
53.4292
53.4268
53.4245
53.4221
53.4198
53.4174
53.4151
53.4128
53.4104
53.4081
53.4057
53.4034
53.4011
53.3987
53.3964
53.394
53.3917
53.3894
53.387
53.3847
53.3824
53.38
53.3777
53.3754
53.373
53.3707
53.3683
53.366
53.3637
53.3613
53.359
53.3567
53.3543
53.352
53.3497
53.3474
53.345
53.3427
53.3404
53.338
53.3357
53.3334
53.331
53.3287
53.3264
53.3241
53.3217
53.3194
53.3171
53.3147
53.3124
53.3101
53.3078
53.3054
53.3031
53.3008
53.2985
53.2961
53.2938
53.2915
53.2892
53.2869
53.2845
53.2822
53.2799
53.2776
53.2752
53.2729
53.2706
53.2683
53.266
53.2636
53.2613
53.259
53.2567
53.2544
53.2521
53.2497
53.2474
53.2451
53.2428
53.2405
53.2382
53.2358
53.2335
53.2312
53.2289
53.2266
53.2243
53.222
53.2197
53.2173
53.215
53.2127
53.2104
53.2081
53.2058
53.2035
53.2012
53.1989
53.1966
53.1942
53.1919
53.1896
53.1873
53.185
53.1827
53.1804
53.1781
53.1758
53.1735
53.1712
53.1689
53.1666
53.1643
53.162
53.1597
53.1574
53.1551
53.1528
53.1505
53.1481
53.1458
53.1435
53.1412
53.1389
53.1366
53.1343
53.132
53.1298
53.1275
53.1252
53.1229
53.1206
53.1183
53.116
53.1137
53.1114
53.1091
53.1068
53.1045
53.1022
53.0999
53.0976
53.0953
53.093
53.0907
53.0884
53.0861
53.0839
53.0816
53.0793
53.077
53.0747
53.0724
53.0701
53.0678
53.0655
53.0632
53.061
53.0587
53.0564
53.0541
53.0518
53.0495
53.0472
53.0449
53.0427
53.0404
53.0381
53.0358
53.0335
53.0312
53.029
53.0267
53.0244
53.0221
53.0198
53.0175
53.0153
53.013
53.0107
53.0084
53.0061
53.0039
53.0016
52.9993
52.997
52.9947
52.9925
52.9902
52.9879
52.9856
52.9834
52.9811
52.9788
52.9765
52.9743
52.972
52.9697
52.9674
52.9652
52.9629
52.9606
52.9583
52.9561
52.9538
52.9515
52.9493
52.947
52.9447
52.9424
52.9402
52.9379
52.9356
52.9334
52.9311
52.9288
52.9266
52.9243
52.922
52.9198
52.9175
52.9152
52.913
52.9107
52.9084
52.9062
52.9039
52.9016
52.8994
52.8971
52.8949
52.8926
52.8903
52.8881
52.8858
52.8835
52.8813
52.879
52.8768
52.8745
52.8722
52.87
52.8677
52.8655
52.8632
52.861
52.8587
52.8564
52.8542
52.8519
52.8497
52.8474
52.8452
52.8429
52.8407
52.8384
52.8361
52.8339
52.8316
52.8294
52.8271
52.8249
52.8226
52.8204
52.8181
52.8159
52.8136
52.8114
52.8091
52.8069
52.8046
52.8024
52.8001
52.7979
52.7956
52.7934
52.7911
52.7889
52.7867
52.7844
52.7822
52.7799
52.7777
52.7754
52.7732
52.7709
52.7687
52.7665
52.7642
52.762
52.7597
52.7575
52.7552
52.753
52.7508
52.7485
52.7463
52.744
52.7418
52.7396
52.7373
52.7351
52.7328
52.7306
52.7284
52.7261
52.7239
52.7217
52.7194
52.7172
52.715
52.7127
52.7105
52.7083
52.706
52.7038
52.7016
52.6993
52.6971
52.6949
52.6926
52.6904
52.6882
52.6859
52.6837
52.6815
52.6792
52.677
52.6748
52.6726
52.6703
52.6681
52.6659
52.6636
52.6614
52.6592
52.657
52.6547
52.6525
52.6503
52.6481
52.6458
52.6436
52.6414
52.6392
52.6369
52.6347
52.6325
52.6303
52.6281
52.6258
52.6236
52.6214
52.6192
52.617
52.6147
52.6125
52.6103
52.6081
52.6059
52.6036
52.6014
52.5992
52.597
52.5948
52.5926
52.5903
52.5881
52.5859
52.5837
52.5815
52.5793
52.577
52.5748
52.5726
52.5704
52.5682
52.566
52.5638
52.5616
52.5594
52.5571
52.5549
52.5527
52.5505
52.5483
52.5461
52.5439
52.5417
52.5395
52.5373
52.5351
52.5328
52.5306
52.5284
52.5262
52.524
52.5218
52.5196
52.5174
52.5152
52.513
52.5108
52.5086
52.5064
52.5042
52.502
52.4998
52.4976
52.4954
52.4932
52.491
52.4888
52.4866
52.4844
52.4822
52.48
52.4778
52.4756
52.4734
52.4712
52.469
52.4668
52.4646
52.4624
52.4602
52.458
52.4558
52.4536
52.4514
52.4492
52.447
52.4448
52.4427
52.4405
52.4383
52.4361
52.4339
52.4317
52.4295
52.4273
52.4251
52.4229
52.4207
52.4186
52.4164
52.4142
52.412
52.4098
52.4076
52.4054
52.4032
52.4011
52.3989
52.3967
52.3945
52.3923
52.3901
52.3879
52.3858
52.3836
52.3814
52.3792
52.377
52.3748
52.3727
52.3705
52.3683
52.3661
52.3639
52.3618
52.3596
52.3574
52.3552
52.353
52.3509
52.3487
52.3465
52.3443
52.3422
52.34
52.3378
52.3356
52.3334
52.3313
52.3291
52.3269
52.3247
52.3226
52.3204
52.3182
52.3161
52.3139
52.3117
52.3095
52.3074
52.3052
52.303
52.3008
52.2987
52.2965
52.2943
52.2922
52.29
52.2878
52.2857
52.2835
52.2813
52.2792
52.277
52.2748
52.2727
52.2705
52.2683
52.2662
52.264
52.2618
52.2597
52.2575
52.2553
52.2532
52.251
52.2489
52.2467
52.2445
52.2424
52.2402
52.238
52.2359
52.2337
52.2316
52.2294
52.2272
52.2251
52.2229
52.2208
52.2186
52.2165
52.2143
52.2121
52.21
52.2078
52.2057
52.2035
52.2014
52.1992
52.1971
52.1949
52.1927
52.1906
52.1884
52.1863
52.1841
52.182
52.1798
52.1777
52.1755
52.1734
52.1712
52.1691
52.1669
52.1648
52.1626
52.1605
52.1583
52.1562
52.154
52.1519
52.1497
52.1476
52.1454
52.1433
52.1412
52.139
52.1369
52.1347
52.1326
52.1304
52.1283
52.1261
52.124
52.1219
52.1197
52.1176
52.1154
52.1133
52.1112
52.109
52.1069
52.1047
52.1026
52.1005
52.0983
52.0962
52.094
52.0919
52.0898
52.0876
52.0855
52.0834
52.0812
52.0791
52.0769
52.0748
52.0727
52.0705
52.0684
52.0663
52.0641
52.062
52.0599
52.0577
52.0556
52.0535
52.0513
52.0492
52.0471
52.045
52.0428
52.0407
52.0386
52.0364
52.0343
52.0322
52.0301
52.0279
52.0258
52.0237
52.0215
52.0194
52.0173
52.0152
52.013
52.0109
52.0088
52.0067
52.0045
52.0024
52.0003
51.9982
51.9961
51.9939
51.9918
51.9897
51.9876
51.9854
51.9833
51.9812
51.9791
51.977
51.9748
51.9727
51.9706
51.9685
51.9664
51.9643
51.9621