# vtk DataFile Version 2.0
vtk output
ASCII
DATASET STRUCTURED_GRID
DIMENSIONS 50 10 30
POINTS 15000 float
0 0 0
1 0 0
2 0 0
3 0 0
4 0 0
5 0 0
6 0 0
7 0 0
8 0 0
9 0 0
10 0 0
11 0 0
12 0 0
13 0 0
14 0 0
15 0 0
16 0 0
17 0 0
18 0 0
19 0 0
20 0 0
21 0 0
22 0 0
23 0 0
24 0 0
25 0 0
26 0 0
27 0 0
28 0 0
29 0 0
30 0 0
31 0 0
32 0 0
33 0 0
34 0 0
35 0 0
36 0 0
37 0 0
38 0 0
39 0 0
40 0 0
41 0 0
42 0 0
43 0 0
44 0 0
45 0 0
46 0 0
47 0 0
48 0 0
49 0 0
0 1 0
1 1 0
2 1 0
3 1 0
4 1 0
5 1 0
6 1 0
7 1 0
8 1 0
9 1 0
10 1 0
11 1 0
12 1 0
13 1 0
14 1 0
15 1 0
16 1 0
17 1 0
18 1 0
19 1 0
20 1 0
21 1 0
22 1 0
23 1 0
24 1 0
25 1 0
26 1 0
27 1 0
28 1 0
29 1 0
30 1 0
31 1 0
32 1 0
33 1 0
34 1 0
35 1 0
36 1 0
37 1 0
38 1 0
39 1 0
40 1 0
41 1 0
42 1 0
43 1 0
44 1 0
45 1 0
46 1 0
47 1 0
48 1 0
49 1 0
0 2 0
1 2 0
2 2 0
3 2 0
4 2 0
5 2 0
6 2 0
7 2 0
8 2 0
9 2 0
10 2 0
11 2 0
12 2 0
13 2 0
14 2 0
15 2 0
16 2 0
17 2 0
18 2 0
19 2 0
20 2 0
21 2 0
22 2 0
23 2 0
24 2 0
25 2 0
26 2 0
27 2 0
28 2 0
29 2 0
30 2 0
31 2 0
32 2 0
33 2 0
34 2 0
35 2 0
36 2 0
37 2 0
38 2 0
39 2 0
40 2 0
41 2 0
42 2 0
43 2 0
44 2 0
45 2 0
46 2 0
47 2 0
48 2 0
49 2 0
0 3 0
1 3 0
2 3 0
3 3 0
4 3 0
5 3 0
6 3 0
7 3 0
8 3 0
9 3 0
10 3 0
11 3 0
12 3 0
13 3 0
14 3 0
15 3 0
16 3 0
17 3 0
18 3 0
19 3 0
20 3 0
21 3 0
22 3 0
23 3 0
24 3 0
25 3 0
26 3 0
27 3 0
28 3 0
29 3 0
30 3 0
31 3 0
32 3 0
33 3 0
34 3 0
35 3 0
36 3 0
37 3 0
38 3 0
39 3 0
40 3 0
41 3 0
42 3 0
43 3 0
44 3 0
45 3 0
46 3 0
47 3 0
48 3 0
49 3 0
0 4 0
1 4 0
2 4 0
3 4 0
4 4 0
5 4 0
6 4 0
7 4 0
8 4 0
9 4 0
10 4 0
11 4 0
12 4 0
13 4 0
14 4 0
15 4 0
16 4 0
17 4 0
18 4 0
19 4 0
20 4 0
21 4 0
22 4 0
23 4 0
24 4 0
25 4 0
26 4 0
27 4 0
28 4 0
29 4 0
30 4 0
31 4 0
32 4 0
33 4 0
34 4 0
35 4 0
36 4 0
37 4 0
38 4 0
39 4 0
40 4 0
41 4 0
42 4 0
43 4 0
44 4 0
45 4 0
46 4 0
47 4 0
48 4 0
49 4 0
0 5 0
1 5 0
2 5 0
3 5 0
4 5 0
5 5 0
6 5 0
7 5 0
8 5 0
9 5 0
10 5 0
11 5 0
12 5 0
13 5 0
14 5 0
15 5 0
16 5 0
17 5 0
18 5 0
19 5 0
20 5 0
21 5 0
22 5 0
23 5 0
24 5 0
25 5 0
26 5 0
27 5 0
28 5 0
29 5 0
30 5 0
31 5 0
32 5 0
33 5 0
34 5 0
35 5 0
36 5 0
37 5 0
38 5 0
39 5 0
40 5 0
41 5 0
42 5 0
43 5 0
44 5 0
45 5 0
46 5 0
47 5 0
48 5 0
49 5 0
0 6 0
1 6 0
2 6 0
3 6 0
4 6 0
5 6 0
6 6 0
7 6 0
8 6 0
9 6 0
10 6 0
11 6 0
12 6 0
13 6 0
14 6 0
15 6 0
16 6 0
17 6 0
18 6 0
19 6 0
20 6 0
21 6 0
22 6 0
23 6 0
24 6 0
25 6 0
26 6 0
27 6 0
28 6 0
29 6 0
30 6 0
31 6 0
32 6 0
33 6 0
34 6 0
35 6 0
36 6 0
37 6 0
38 6 0
39 6 0
40 6 0
41 6 0
42 6 0
43 6 0
44 6 0
45 6 0
46 6 0
47 6 0
48 6 0
49 6 0
0 7 0
1 7 0
2 7 0
3 7 0
4 7 0
5 7 0
6 7 0
7 7 0
8 7 0
9 7 0
10 7 0
11 7 0
12 7 0
13 7 0
14 7 0
15 7 0
16 7 0
17 7 0
18 7 0
19 7 0
20 7 0
21 7 0
22 7 0
23 7 0
24 7 0
25 7 0
26 7 0
27 7 0
28 7 0
29 7 0
30 7 0
31 7 0
32 7 0
33 7 0
34 7 0
35 7 0
36 7 0
37 7 0
38 7 0
39 7 0
40 7 0
41 7 0
42 7 0
43 7 0
44 7 0
45 7 0
46 7 0
47 7 0
48 7 0
49 7 0
0 8 0
1 8 0
2 8 0
3 8 0
4 8 0
5 8 0
6 8 0
7 8 0
8 8 0
9 8 0
10 8 0
11 8 0
12 8 0
13 8 0
14 8 0
15 8 0
16 8 0
17 8 0
18 8 0
19 8 0
20 8 0
21 8 0
22 8 0
23 8 0
24 8 0
25 8 0
26 8 0
27 8 0
28 8 0
29 8 0
30 8 0
31 8 0
32 8 0
33 8 0
34 8 0
35 8 0
36 8 0
37 8 0
38 8 0
39 8 0
40 8 0
41 8 0
42 8 0
43 8 0
44 8 0
45 8 0
46 8 0
47 8 0
48 8 0
49 8 0
0 9 0
1 9 0
2 9 0
3 9 0
4 9 0
5 9 0
6 9 0
7 9 0
8 9 0
9 9 0
10 9 0
11 9 0
12 9 0
13 9 0
14 9 0
15 9 0
16 9 0
17 9 0
18 9 0
19 9 0
20 9 0
21 9 0
22 9 0
23 9 0
24 9 0
25 9 0
26 9 0
27 9 0
28 9 0
29 9 0
30 9 0
31 9 0
32 9 0
33 9 0
34 9 0
35 9 0
36 9 0
37 9 0
38 9 0
39 9 0
40 9 0
41 9 0
42 9 0
43 9 0
44 9 0
45 9 0
46 9 0
47 9 0
48 9 0
49 9 0
0 0 1
1 0 1
2 0 1
3 0 1
4 0 1
5 0 1
6 0 1
7 0 1
8 0 1
9 0 1
10 0 1
11 0 1
12 0 1
13 0 1
14 0 1
15 0 1
16 0 1
17 0 1
18 0 1
19 0 1
20 0 1
21 0 1
22 0 1
23 0 1
24 0 1
25 0 1
26 0 1
27 0 1
28 0 1
29 0 1
30 0 1
31 0 1
32 0 1
33 0 1
34 0 1
35 0 1
36 0 1
37 0 1
38 0 1
39 0 1
40 0 1
41 0 1
42 0 1
43 0 1
44 0 1
45 0 1
46 0 1
47 0 1
48 0 1
49 0 1
0 1 1
1 1 1
2 1 1
3 1 1
4 1 1
5 1 1
6 1 1
7 1 1
8 1 1
9 1 1
10 1 1
11 1 1
12 1 1
13 1 1
14 1 1
15 1 1
16 1 1
17 1 1
18 1 1
19 1 1
20 1 1
21 1 1
22 1 1
23 1 1
24 1 1
25 1 1
26 1 1
27 1 1
28 1 1
29 1 1
30 1 1
31 1 1
32 1 1
33 1 1
34 1 1
35 1 1
36 1 1
37 1 1
38 1 1
39 1 1
40 1 1
41 1 1
42 1 1
43 1 1
44 1 1
45 1 1
46 1 1
47 1 1
48 1 1
49 1 1
0 2 1
1 2 1
2 2 1
3 2 1
4 2 1
5 2 1
6 2 1
7 2 1
8 2 1
9 2 1
10 2 1
11 2 1
12 2 1
13 2 1
14 2 1
15 2 1
16 2 1
17 2 1
18 2 1
19 2 1
20 2 1
21 2 1
22 2 1
23 2 1
24 2 1
25 2 1
26 2 1
27 2 1
28 2 1
29 2 1
30 2 1
31 2 1
32 2 1
33 2 1
34 2 1
35 2 1
36 2 1
37 2 1
38 2 1
39 2 1
40 2 1
41 2 1
42 2 1
43 2 1
44 2 1
45 2 1
46 2 1
47 2 1
48 2 1
49 2 1
0 3 1
1 3 1
2 3 1
3 3 1
4 3 1
5 3 1
6 3 1
7 3 1
8 3 1
9 3 1
10 3 1
11 3 1
12 3 1
13 3 1
14 3 1
15 3 1
16 3 1
17 3 1
18 3 1
19 3 1
20 3 1
21 3 1
22 3 1
23 3 1
24 3 1
25 3 1
26 3 1
27 3 1
28 3 1
29 3 1
30 3 1
31 3 1
32 3 1
33 3 1
34 3 1
35 3 1
36 3 1
37 3 1
38 3 1
39 3 1
40 3 1
41 3 1
42 3 1
43 3 1
44 3 1
45 3 1
46 3 1
47 3 1
48 3 1
49 3 1
0 4 1
1 4 1
2 4 1
3 4 1
4 4 1
5 4 1
6 4 1
7 4 1
8 4 1
9 4 1
10 4 1
11 4 1
12 4 1
13 4 1
14 4 1
15 4 1
16 4 1
17 4 1
18 4 1
19 4 1
20 4 1
21 4 1
22 4 1
23 4 1
24 4 1
25 4 1
26 4 1
27 4 1
28 4 1
29 4 1
30 4 1
31 4 1
32 4 1
33 4 1
34 4 1
35 4 1
36 4 1
37 4 1
38 4 1
39 4 1
40 4 1
41 4 1
42 4 1
43 4 1
44 4 1
45 4 1
46 4 1
47 4 1
48 4 1
49 4 1
0 5 1
1 5 1
2 5 1
3 5 1
4 5 1
5 5 1
6 5 1
7 5 1
8 5 1
9 5 1
10 5 1
11 5 1
12 5 1
13 5 1
14 5 1
15 5 1
16 5 1
17 5 1
18 5 1
19 5 1
20 5 1
21 5 1
22 5 1
23 5 1
24 5 1
25 5 1
26 5 1
27 5 1
28 5 1
29 5 1
30 5 1
31 5 1
32 5 1
33 5 1
34 5 1
35 5 1
36 5 1
37 5 1
38 5 1
39 5 1
40 5 1
41 5 1
42 5 1
43 5 1
44 5 1
45 5 1
46 5 1
47 5 1
48 5 1
49 5 1
0 6 1
1 6 1
2 6 1
3 6 1
4 6 1
5 6 1
6 6 1
7 6 1
8 6 1
9 6 1
10 6 1
11 6 1
12 6 1
13 6 1
14 6 1
15 6 1
16 6 1
17 6 1
18 6 1
19 6 1
20 6 1
21 6 1
22 6 1
23 6 1
24 6 1
25 6 1
26 6 1
27 6 1
28 6 1
29 6 1
30 6 1
31 6 1
32 6 1
33 6 1
34 6 1
35 6 1
36 6 1
37 6 1
38 6 1
39 6 1
40 6 1
41 6 1
42 6 1
43 6 1
44 6 1
45 6 1
46 6 1
47 6 1
48 6 1
49 6 1
0 7 1
1 7 1
2 7 1
3 7 1
4 7 1
5 7 1
6 7 1
7 7 1
8 7 1
9 7 1
10 7 1
11 7 1
12 7 1
13 7 1
14 7 1
15 7 1
16 7 1
17 7 1
18 7 1
19 7 1
20 7 1
21 7 1
22 7 1
23 7 1
24 7 1
25 7 1
26 7 1
27 7 1
28 7 1
29 7 1
30 7 1
31 7 1
32 7 1
33 7 1
34 7 1
35 7 1
36 7 1
37 7 1
38 7 1
39 7 1
40 7 1
41 7 1
42 7 1
43 7 1
44 7 1
45 7 1
46 7 1
47 7 1
48 7 1
49 7 1
0 8 1
1 8 1
2 8 1
3 8 1
4 8 1
5 8 1
6 8 1
7 8 1
8 8 1
9 8 1
10 8 1
11 8 1
12 8 1
13 8 1
14 8 1
15 8 1
16 8 1
17 8 1
18 8 1
19 8 1
20 8 1
21 8 1
22 8 1
23 8 1
24 8 1
25 8 1
26 8 1
27 8 1
28 8 1
29 8 1
30 8 1
31 8 1
32 8 1
33 8 1
34 8 1
35 8 1
36 8 1
37 8 1
38 8 1
39 8 1
40 8 1
41 8 1
42 8 1
43 8 1
44 8 1
45 8 1
46 8 1
47 8 1
48 8 1
49 8 1
0 9 1
1 9 1
2 9 1
3 9 1
4 9 1
5 9 1
6 9 1
7 9 1
8 9 1
9 9 1
10 9 1
11 9 1
12 9 1
13 9 1
14 9 1
15 9 1
16 9 1
17 9 1
18 9 1
19 9 1
20 9 1
21 9 1
22 9 1
23 9 1
24 9 1
25 9 1
26 9 1
27 9 1
28 9 1
29 9 1
30 9 1
31 9 1
32 9 1
33 9 1
34 9 1
35 9 1
36 9 1
37 9 1
38 9 1
39 9 1
40 9 1
41 9 1
42 9 1
43 9 1
44 9 1
45 9 1
46 9 1
47 9 1
48 9 1
49 9 1
0 0 2
1 0 2
2 0 2
3 0 2
4 0 2
5 0 2
6 0 2
7 0 2
8 0 2
9 0 2
10 0 2
11 0 2
12 0 2
13 0 2
14 0 2
15 0 2
16 0 2
17 0 2
18 0 2
19 0 2
20 0 2
21 0 2
22 0 2
23 0 2
24 0 2
25 0 2
26 0 2
27 0 2
28 0 2
29 0 2
30 0 2
31 0 2
32 0 2
33 0 2
34 0 2
35 0 2
36 0 2
37 0 2
38 0 2
39 0 2
40 0 2
41 0 2
42 0 2
43 0 2
44 0 2
45 0 2
46 0 2
47 0 2
48 0 2
49 0 2
0 1 2
1 1 2
2 1 2
3 1 2
4 1 2
5 1 2
6 1 2
7 1 2
8 1 2
9 1 2
10 1 2
11 1 2
12 1 2
13 1 2
14 1 2
15 1 2
16 1 2
17 1 2
18 1 2
19 1 2
20 1 2
21 1 2
22 1 2
23 1 2
24 1 2
25 1 2
26 1 2
27 1 2
28 1 2
29 1 2
30 1 2
31 1 2
32 1 2
33 1 2
34 1 2
35 1 2
36 1 2
37 1 2
38 1 2
39 1 2
40 1 2
41 1 2
42 1 2
43 1 2
44 1 2
45 1 2
46 1 2
47 1 2
48 1 2
49 1 2
0 2 2
1 2 2
2 2 2
3 2 2
4 2 2
5 2 2
6 2 2
7 2 2
8 2 2
9 2 2
10 2 2
11 2 2
12 2 2
13 2 2
14 2 2
15 2 2
16 2 2
17 2 2
18 2 2
19 2 2
20 2 2
21 2 2
22 2 2
23 2 2
24 2 2
25 2 2
26 2 2
27 2 2
28 2 2
29 2 2
30 2 2
31 2 2
32 2 2
33 2 2
34 2 2
35 2 2
36 2 2
37 2 2
38 2 2
39 2 2
40 2 2
41 2 2
42 2 2
43 2 2
44 2 2
45 2 2
46 2 2
47 2 2
48 2 2
49 2 2
0 3 2
1 3 2
2 3 2
3 3 2
4 3 2
5 3 2
6 3 2
7 3 2
8 3 2
9 3 2
10 3 2
11 3 2
12 3 2
13 3 2
14 3 2
15 3 2
16 3 2
17 3 2
18 3 2
19 3 2
20 3 2
21 3 2
22 3 2
23 3 2
24 3 2
25 3 2
26 3 2
27 3 2
28 3 2
29 3 2
30 3 2
31 3 2
32 3 2
33 3 2
34 3 2
35 3 2
36 3 2
37 3 2
38 3 2
39 3 2
40 3 2
41 3 2
42 3 2
43 3 2
44 3 2
45 3 2
46 3 2
47 3 2
48 3 2
49 3 2
0 4 2
1 4 2
2 4 2
3 4 2
4 4 2
5 4 2
6 4 2
7 4 2
8 4 2
9 4 2
10 4 2
11 4 2
12 4 2
13 4 2
14 4 2
15 4 2
16 4 2
17 4 2
18 4 2
19 4 2
20 4 2
21 4 2
22 4 2
23 4 2
24 4 2
25 4 2
26 4 2
27 4 2
28 4 2
29 4 2
30 4 2
31 4 2
32 4 2
33 4 2
34 4 2
35 4 2
36 4 2
37 4 2
38 4 2
39 4 2
40 4 2
41 4 2
42 4 2
43 4 2
44 4 2
45 4 2
46 4 2
47 4 2
48 4 2
49 4 2
0 5 2
1 5 2
2 5 2
3 5 2
4 5 2
5 5 2
6 5 2
7 5 2
8 5 2
9 5 2
10 5 2
11 5 2
12 5 2
13 5 2
14 5 2
15 5 2
16 5 2
17 5 2
18 5 2
19 5 2
20 5 2
21 5 2
22 5 2
23 5 2
24 5 2
25 5 2
26 5 2
27 5 2
28 5 2
29 5 2
30 5 2
31 5 2
32 5 2
33 5 2
34 5 2
35 5 2
36 5 2
37 5 2
38 5 2
39 5 2
40 5 2
41 5 2
42 5 2
43 5 2
44 5 2
45 5 2
46 5 2
47 5 2
48 5 2
49 5 2
0 6 2
1 6 2
2 6 2
3 6 2
4 6 2
5 6 2
6 6 2
7 6 2
8 6 2
9 6 2
10 6 2
11 6 2
12 6 2
13 6 2
14 6 2
15 6 2
16 6 2
17 6 2
18 6 2
19 6 2
20 6 2
21 6 2
22 6 2
23 6 2
24 6 2
25 6 2
26 6 2
27 6 2
28 6 2
29 6 2
30 6 2
31 6 2
32 6 2
33 6 2
34 6 2
35 6 2
36 6 2
37 6 2
38 6 2
39 6 2
40 6 2
41 6 2
42 6 2
43 6 2
44 6 2
45 6 2
46 6 2
47 6 2
48 6 2
49 6 2
0 7 2
1 7 2
2 7 2
3 7 2
4 7 2
5 7 2
6 7 2
7 7 2
8 7 2
9 7 2
10 7 2
11 7 2
12 7 2
13 7 2
14 7 2
15 7 2
16 7 2
17 7 2
18 7 2
19 7 2
20 7 2
21 7 2
22 7 2
23 7 2
24 7 2
25 7 2
26 7 2
27 7 2
28 7 2
29 7 2
30 7 2
31 7 2
32 7 2
33 7 2
34 7 2
35 7 2
36 7 2
37 7 2
38 7 2
39 7 2
40 7 2
41 7 2
42 7 2
43 7 2
44 7 2
45 7 2
46 7 2
47 7 2
48 7 2
49 7 2
0 8 2
1 8 2
2 8 2
3 8 2
4 8 2
5 8 2
6 8 2
7 8 2
8 8 2
9 8 2
10 8 2
11 8 2
12 8 2
13 8 2
14 8 2
15 8 2
16 8 2
17 8 2
18 8 2
19 8 2
20 8 2
21 8 2
22 8 2
23 8 2
24 8 2
25 8 2
26 8 2
27 8 2
28 8 2
29 8 2
30 8 2
31 8 2
32 8 2
33 8 2
34 8 2
35 8 2
36 8 2
37 8 2
38 8 2
39 8 2
40 8 2
41 8 2
42 8 2
43 8 2
44 8 2
45 8 2
46 8 2
47 8 2
48 8 2
49 8 2
0 9 2
1 9 2
2 9 2
3 9 2
4 9 2
[...]
POINT_DATA 15000
SCALARS sol350 float
LOOKUP_TABLE default
58.4361
58.4331
58.43
58.427
58.4239
58.4209
58.4178
58.4148
58.4118
58.4087
58.4057
58.4026
58.3996
58.3965
58.3935
58.3904
58.3874
58.3844
58.3813
58.3783
58.3752
58.3722
58.3692
58.3661
58.3631
58.36
58.357
58.354
58.3509
58.3479
58.3448
58.3418
58.3388
58.3357
58.3327
58.3297
58.3266
58.3236
58.3206
58.3175
58.3145
58.3115
58.3084
58.3054
58.3024
58.2993
58.2963
58.2933
58.2902
58.2872
58.2842
58.2812
58.2781
58.2751
58.2721
58.269
58.266
58.263
58.26
58.2569
58.2539
58.2509
58.2479
58.2448
58.2418
58.2388
58.2358
58.2328
58.2297
58.2267
58.2237
58.2207
58.2177
58.2146
58.2116
58.2086
58.2056
58.2026
58.1995
58.1965
58.1935
58.1905
58.1875
58.1845
58.1814
58.1784
58.1754
58.1724
58.1694
58.1664
58.1634
58.1603
58.1573
58.1543
58.1513
58.1483
58.1453
58.1423
58.1393
58.1363
58.1333
58.1302
58.1272
58.1242
58.1212
58.1182
58.1152
58.1122
58.1092
58.1062
58.1032
58.1002
58.0972
58.0942
58.0912
58.0882
58.0852
58.0822
58.0792
58.0762
58.0732
58.0702
58.0672
58.0642
58.0612
58.0582
58.0552
58.0522
58.0492
58.0462
58.0432
58.0402
58.0372
58.0342
58.0312
58.0282
58.0252
58.0222
58.0192
58.0162
58.0132
58.0102
58.0072
58.0043
58.0013
57.9983
57.9953
57.9923
57.9893
57.9863
57.9833
57.9803
57.9773
57.9744
57.9714
57.9684
57.9654
57.9624
57.9594
57.9564
57.9535
57.9505
57.9475
57.9445
57.9415
57.9385
57.9356
57.9326
57.9296
57.9266
57.9236
57.9207
57.9177
57.9147
57.9117
57.9087
57.9058
57.9028
57.8998
57.8968
57.8938
57.8909
57.8879
57.8849
57.8819
57.879
57.876
57.873
57.87
57.8671
57.8641
57.8611
57.8582
57.8552
57.8522
57.8492
57.8463
57.8433
57.8403
57.8374
57.8344
57.8314
57.8285
57.8255
57.8225
57.8196
57.8166
57.8136
57.8107
57.8077
57.8047
57.8018
57.7988
57.7958
57.7929
57.7899
57.787
57.784
57.781
57.7781
57.7751
57.7721
57.7692
57.7662
57.7633
57.7603
57.7573
57.7544
57.7514
57.7485
57.7455
57.7426
57.7396
57.7367
57.7337
57.7307
57.7278
57.7248
57.7219
57.7189
57.716
57.713
57.7101
57.7071
57.7042
57.7012
57.6983
57.6953
57.6924
57.6894
57.6865
57.6835
57.6806
57.6776
57.6747
57.6717
57.6688
57.6658
57.6629
57.6599
57.657
57.6541
57.6511
57.6482
57.6452
57.6423
57.6393
57.6364
57.6335
57.6305
57.6276
57.6246
57.6217
57.6188
57.6158
57.6129
57.6099
57.607
57.6041
57.6011
57.5982
57.5952
57.5923
57.5894
57.5864
57.5835
57.5806
57.5776
57.5747
57.5718
57.5688
57.5659
57.563
57.56
57.5571
57.5542
57.5512
57.5483
57.5454
57.5425
57.5395
57.5366
57.5337
57.5307
57.5278
57.5249
57.522
57.519
57.5161
57.5132
57.5103
57.5073
57.5044
57.5015
57.4986
57.4956
57.4927
57.4898
57.4869
57.484
57.481
57.4781
57.4752
57.4723
57.4693
57.4664
57.4635
57.4606
57.4577
57.4548
57.4518
57.4489
57.446
57.4431
57.4402
57.4373
57.4343
57.4314
57.4285
57.4256
57.4227
57.4198
57.4169
57.414
57.411
57.4081
57.4052
57.4023
57.3994
57.3965
57.3936
57.3907
57.3878
57.3849
57.3819
57.379
57.3761
57.3732
57.3703
57.3674
57.3645
57.3616
57.3587
57.3558
57.3529
57.35
57.3471
57.3442
57.3413
57.3384
57.3355
57.3326
57.3297
57.3268
57.3239
57.321
57.3181
57.3152
57.3123
57.3094
57.3065
57.3036
57.3007
57.2978
57.2949
57.292
57.2891
57.2862
57.2833
57.2804
57.2775
57.2746
57.2717
57.2689
57.266
57.2631
57.2602
57.2573
57.2544
57.2515
57.2486
57.2457
57.2428
57.2399
57.2371
57.2342
57.2313
57.2284
57.2255
57.2226
57.2197
57.2169
57.214
57.2111
57.2082
57.2053
57.2024
57.1996
57.1967
57.1938
57.1909
57.188
57.1851
57.1823
57.1794
57.1765
57.1736
57.1707
57.1679
57.165
57.1621
57.1592
57.1564
57.1535
57.1506
57.1477
57.1448
57.142
57.1391
57.1362
57.1334
57.1305
57.1276
57.1247
57.1219
57.119
57.1161
57.1132
57.1104
57.1075
57.1046
57.1018
57.0989
57.096
57.0932
57.0903
57.0874
57.0846
57.0817
57.0788
57.076
57.0731
57.0702
57.0674
57.0645
57.0616
57.0588
57.0559
57.053
57.0502
57.0473
57.0445
57.0416
57.0387
57.0359
57.033
57.0301
57.0273
57.0244
57.0216
57.0187
57.0159
57.013
57.0101
57.0073
57.0044
57.0016
56.9987
56.9959
56.993
56.9902
56.9873
56.9844
56.9816
56.9787
56.9759
56.973
56.9702
56.9673
56.9645
56.9616
56.9588
56.9559
56.9531
56.9502
56.9474
56.9445
56.9417
56.9388
56.936
56.9331
56.9303
56.9275
56.9246
56.9218
56.9189
56.9161
56.9132
56.9104
56.9075
56.9047
56.9019
56.899
56.8962
56.8933
56.8905
56.8877
56.8848
56.882
56.8791
56.8763
56.8735
56.8706
56.8678
56.8649
56.8621
56.8593
56.8564
56.8536
56.8508
56.8479
56.8451
56.8423
56.8394
56.8366
56.8338
56.8309
56.8281
56.8253
56.8224
56.8196
56.8168
56.8139
56.8111
56.8083
56.8055
56.8026
56.7998
56.797
56.7941
56.7913
56.7885
56.7857
56.7828
56.78
56.7772
56.7744
56.7715
56.7687
56.7659
56.7631
56.7602
56.7574
56.7546
56.7518
56.7489
56.7461
56.7433
56.7405
56.7377
56.7348
56.732
56.7292
56.7264
56.7236
56.7208
56.7179
56.7151
56.7123
56.7095
56.7067
56.7039
56.701
56.6982
56.6954
56.6926
56.6898
56.687
56.6842
56.6814
56.6785
56.6757
56.6729
56.6701
56.6673
56.6645
56.6617
56.6589
56.6561
56.6533
56.6504
56.6476
56.6448
56.642
56.6392
56.6364
56.6336
56.6308
56.628
56.6252
56.6224
56.6196
56.6168
56.614
56.6112
56.6084
56.6056
56.6028
56.6
56.5972
56.5944
56.5916
56.5888
56.586
56.5832
56.5804
56.5776
56.5748
56.572
56.5692
56.5664
56.5636
56.5608
56.558
56.5552
56.5524
56.5496
56.5468
56.544
56.5412
56.5384
56.5357
56.5329
56.5301
56.5273
56.5245
56.5217
56.5189
56.5161
56.5133
56.5105
56.5078
56.505
56.5022
56.4994
56.4966
56.4938
56.491
56.4883
56.4855
56.4827
56.4799
56.4771
56.4743
56.4715
56.4688
56.466
56.4632
56.4604
56.4576
56.4549
56.4521
56.4493
56.4465
56.4437
56.441
56.4382
56.4354
56.4326
56.4298
56.4271
56.4243
56.4215
56.4187
56.416
56.4132
56.4104
56.4076
56.4049
56.4021
56.3993
56.3965
56.3938
56.391
56.3882
56.3855
56.3827
56.3799
56.3771
56.3744
56.3716
56.3688
56.3661
56.3633
56.3605
56.3578
56.355
56.3522
56.3495
56.3467
56.3439
56.3412
56.3384
56.3356
56.3329
56.3301
56.3274
56.3246
56.3218
56.3191
56.3163
56.3135
56.3108
56.308
56.3053
56.3025
56.2997
56.297
56.2942
56.2915
56.2887
56.2859
56.2832
56.2804
56.2777
56.2749
56.2722
56.2694
56.2667
56.2639
56.2611
56.2584
56.2556
56.2529
56.2501
56.2474
56.2446
56.2419
56.2391
56.2364
56.2336
56.2309
56.2281
56.2254
56.2226
56.2199
56.2171
56.2144
56.2116
56.2089
56.2061
56.2034
56.2007
56.1979
56.1952
56.1924
56.1897
56.1869
56.1842
56.1814
56.1787
56.176
56.1732
56.1705
56.1677
56.165
56.1623
56.1595
56.1568
56.154
56.1513
56.1486
56.1458
56.1431
56.1403
56.1376
56.1349
56.1321
56.1294
56.1267
56.1239
56.1212
56.1185
56.1157
56.113
56.1103
56.1075
56.1048
56.1021
56.0993
56.0966
56.0939
56.0911
56.0884
56.0857
56.083
56.0802
56.0775
56.0748
56.072
56.0693
56.0666
56.0639
56.0611
56.0584
56.0557
56.053
56.0502
56.0475
56.0448
56.0421
56.0393
56.0366
56.0339
56.0312
56.0284
56.0257
56.023
56.0203
56.0176
56.0148
56.0121
56.0094
56.0067
56.004
56.0013
55.9985
55.9958
55.9931
55.9904
55.9877
55.985
55.9822
55.9795
55.9768
55.9741
55.9714
55.9687
55.966
55.9632
55.9605
55.9578
55.9551
55.9524
55.9497
55.947
55.9443
55.9416
55.9388
55.9361
55.9334
55.9307
55.928
55.9253
55.9226
55.9199
55.9172
55.9145
55.9118
55.9091
55.9064
55.9037
55.901
55.8983
55.8956
55.8929
55.8901
55.8874
55.8847
55.882
55.8793
55.8766
55.8739
55.8712
55.8685
55.8658
55.8631
55.8604
55.8578
55.8551
55.8524
55.8497
55.847
55.8443
55.8416
55.8389
55.8362
55.8335
55.8308
55.8281
55.8254
55.8227
55.82
55.8173
55.8146
55.8119
55.8093
55.8066
55.8039
55.8012
55.7985
55.7958
55.7931
55.7904
55.7877
55.7851
55.7824
55.7797
55.777
55.7743
55.7716
55.7689
55.7663
55.7636
55.7609
55.7582
55.7555
55.7528
55.7501
55.7475
55.7448
55.7421
55.7394
55.7367
55.7341
55.7314
55.7287
55.726
55.7233
55.7207
55.718
55.7153
55.7126
55.71
55.7073
55.7046
55.7019
55.6993
55.6966
55.6939
55.6912
55.6886
55.6859
55.6832
55.6805
55.6779
55.6752
55.6725
55.6698
55.6672
55.6645
55.6618
55.6592
55.6565
55.6538
55.6512
55.6485
55.6458
55.6432
55.6405
55.6378
55.6352
55.6325
55.6298
55.6272
55.6245
55.6218
55.6192
55.6165
55.6138
55.6112
55.6085
55.6058
55.6032
55.6005
55.5979
55.5952
55.5925
55.5899
55.5872
55.5846
55.5819
55.5792
55.5766
55.5739
55.5713
55.5686
55.566
55.5633
55.5606
55.558
55.5553
55.5527
55.55
55.5474
55.5447
55.5421
55.5394
55.5368
55.5341
55.5315
55.5288
55.5261
55.5235
55.5208
55.5182
55.5155
55.5129
55.5102
55.5076
55.505
55.5023
55.4997
55.497
55.4944
55.4917
55.4891
55.4864
55.4838
55.4811
55.4785
55.4758
55.4732
55.4706
55.4679
55.4653
55.4626
55.46
55.4574
55.4547
55.4521
55.4494
55.4468
55.4441
55.4415
55.4389
55.4362
55.4336
55.431
55.4283
55.4257
55.423
55.4204
55.4178
55.4151
55.4125
55.4099
55.4072
55.4046
55.402
55.3993
55.3967
55.3941
55.3914
55.3888
55.3862
55.3835
55.3809
55.3783
55.3757
55.373
55.3704
55.3678
55.3651
55.3625
55.3599
55.3573
55.3546
55.352
55.3494
55.3467
55.3441
55.3415
55.3389
55.3363
55.3336
55.331
55.3284
55.3258
55.3231
55.3205
55.3179
55.3153
55.3126
55.31
55.3074
55.3048
55.3022
55.2996
55.2969
55.2943
55.2917
55.2891
55.2865
55.2838
55.2812
55.2786
55.276
55.2734
55.2708
55.2682
55.2655
55.2629
55.2603
55.2577
55.2551
55.2525
55.2499
55.2472
55.2446
55.242
55.2394
55.2368
55.2342
55.2316
55.229
55.2264
55.2238
55.2212
55.2185
55.2159
55.2133
55.2107
55.2081
55.2055
55.2029
55.2003
55.1977
55.1951
55.1925
55.1899
55.1873
55.1847
55.1821
55.1795
55.1769
55.1743
55.1717
55.1691
55.1665
55.1639
55.1613
55.1587
55.1561
55.1535
55.1509
55.1483
55.1457
55.1431
55.1405
55.1379
55.1353
55.1327
55.1301
55.1275
55.1249
55.1223
55.1197
55.1171
55.1146
55.112
55.1094
55.1068
55.1042
55.1016
55.099
55.0964
55.0938
55.0912
55.0886
55.0861
55.0835
55.0809
55.0783
55.0757
55.0731
55.0705
55.0679
55.0654
55.0628
55.0602
55.0576
55.055
55.0524
55.0499
55.0473
55.0447
55.0421
55.0395
55.0369
55.0344
55.0318
55.0292
55.0266
55.024
55.0215
55.0189
55.0163
55.0137
55.0111
55.0086
55.006
55.0034
55.0008
54.9983
54.9957
54.9931
54.9905
54.988
54.9854
54.9828
54.9802
54.9777
54.9751
54.9725
54.97
54.9674
54.9648
54.9622
54.9597
54.9571
54.9545
54.952
54.9494
54.9468
54.9443
54.9417
54.9391
54.9365
54.934
54.9314
54.9289
54.9263
54.9237
54.9212
54.9186
54.916
54.9135
54.9109
54.9083
54.9058
54.9032
54.9006
54.8981
54.8955
54.893
54.8904
54.8878
54.8853
54.8827
54.8802
54.8776
54.875
54.8725
54.8699
54.8674
54.8648
54.8623
54.8597
54.8572
54.8546
54.852
54.8495
54.8469
54.8444
54.8418
54.8393
54.8367
54.8342
54.8316
54.8291
54.8265
54.824
54.8214
54.8189
54.8163
54.8138
54.8112
54.8087
54.8061
54.8036
54.801
54.7985
54.7959
54.7934
54.7908
54.7883
54.7857
54.7832
54.7806
54.7781
54.7756
54.773
54.7705
54.7679
54.7654
54.7628
54.7603
54.7578
54.7552
54.7527
54.7501
54.7476
54.7451
54.7425
54.74
54.7374
54.7349
54.7324
54.7298
54.7273
54.7248
54.7222
54.7197
54.7171
54.7146
54.7121
54.7095
54.707
54.7045
54.7019
54.6994
54.6969
54.6943
54.6918
54.6893
54.6867
54.6842
54.6817
54.6792
54.6766
54.6741
54.6716
54.669
54.6665
54.664
54.6615
54.6589
54.6564
54.6539
54.6514
54.6488
54.6463
54.6438
54.6413
54.6387
54.6362
54.6337
54.6312
54.6286
54.6261
54.6236
54.6211
54.6185
54.616
54.6135
54.611
54.6085
54.6059
54.6034
54.6009
54.5984
54.5959
54.5934
54.5908
54.5883
54.5858
54.5833
54.5808
54.5783
54.5757
54.5732
54.5707
54.5682
54.5657
54.5632
54.5607
54.5581
54.5556
54.5531
54.5506
54.5481
54.5456
54.5431
54.5406
54.5381
54.5355
54.533
54.5305
54.528
54.5255
54.523
54.5205
54.518
54.5155
54.513
54.5105
54.508
54.5055
54.503
54.5005
54.4979
54.4954
54.4929
54.4904
54.4879
54.4854
54.4829
54.4804
54.4779
54.4754
54.4729
54.4704
54.4679
54.4654
54.4629
54.4604
54.4579
54.4554
54.4529
54.4504
54.4479
54.4455
54.443
54.4405
54.438
54.4355
54.433
54.4305
54.428
54.4255
54.423
54.4205
54.418
54.4155
54.413
54.4105
54.4081
54.4056
54.4031
54.4006
54.3981
54.3956
54.3931
54.3906
54.3881
54.3857
54.3832
54.3807
54.3782
54.3757
54.3732
54.3707
54.3682
54.3658
54.3633
54.3608
54.3583
54.3558
54.3533
54.3509
54.3484
54.3459
54.3434
54.3409
54.3385
54.336
54.3335
54.331
54.3285
54.3261
54.3236
54.3211
54.3186
54.3161
54.3137
54.3112
54.3087
54.3062
54.3038
54.3013
54.2988
54.2963
54.2939
54.2914
54.2889
54.2864
54.284
54.2815
54.279
54.2766
54.2741
54.2716
54.2691
54.2667
54.2642
54.2617
54.2593
54.2568
54.2543
54.2519
54.2494
54.2469
54.2445
54.242
54.2395
54.2371
54.2346
54.2321
54.2297
54.2272
54.2247
54.2223
54.2198
54.2173
54.2149
54.2124
54.21
54.2075
54.205
54.2026
54.2001
54.1977
54.1952
54.1927
54.1903
54.1878
54.1854
54.1829
54.1804
54.178
54.1755
54.1731
54.1706
54.1682
54.1657
54.1633
54.1608
54.1583
54.1559
54.1534
54.151
54.1485
54.1461
54.1436
54.1412
54.1387
54.1363
54.1338
54.1314
54.1289
54.1265
54.124
54.1216
54.1191
54.1167
54.1142
54.1118
54.1093
54.1069
54.1044
54.102
54.0996
54.0971
54.0947
54.0922
54.0898
54.0873
54.0849
54.0824
54.08
54.0776
54.0751
54.0727
54.0702
54.0678
54.0654
54.0629
54.0605
54.058
54.0556
54.0532
54.0507
54.0483
54.0458
54.0434
54.041
54.0385
54.0361
54.0337
54.0312
54.0288
54.0264
54.0239
54.0215
54.019
54.0166
54.0142
54.0117
54.0093
54.0069
54.0045
54.002
53.9996
53.9972
53.9947
53.9923
53.9899
53.9874
53.985
53.9826
53.9802
53.9777
53.9753
53.9729
53.9704
53.968
53.9656
53.9632
53.9607
53.9583
53.9559
53.9535
53.951
53.9486
53.9462
53.9438
53.9414
53.9389
53.9365
53.9341
53.9317
53.9292
53.9268
53.9244
53.922
53.9196
53.9172
53.9147
53.9123
53.9099
53.9075
53.9051
53.9026
53.9002
53.8978
53.8954
53.893
53.8906
53.8882
53.8857
53.8833
53.8809
53.8785
53.8761
53.8737
53.8713
53.8689
53.8664
53.864
53.8616
53.8592
53.8568
53.8544
53.852
53.8496
53.8472
53.8448
53.8423
53.8399
53.8375
53.8351
53.8327
53.8303
53.8279
53.8255
53.8231
53.8207
53.8183
53.8159
53.8135
53.8111
53.8087
53.8063
53.8039
53.8015
53.7991
53.7967
53.7943
53.7919
53.7895
53.7871
53.7847
53.7823
53.7799
53.7775
53.7751
53.7727
53.7703
53.7679
53.7655
53.7631
53.7607
53.7583
53.7559
53.7535
53.7511
53.7487
53.7463
53.7439
53.7415
53.7392
53.7368
53.7344
53.732
53.7296
53.7272
53.7248
53.7224
53.72
53.7176
53.7153
53.7129
53.7105
53.7081
53.7057
53.7033
53.7009
53.6985
53.6962
53.6938
53.6914
53.689
53.6866
53.6842
53.6818
53.6795
53.6771
53.6747
53.6723
53.6699
53.6676
53.6652
53.6628
53.6604
53.658
53.6556
53.6533
53.6509
53.6485
53.6461
53.6438
53.6414
53.639
53.6366
53.6342
53.6319
53.6295
53.6271
53.6247
53.6224
53.62
53.6176
53.6152
53.6129
53.6105
53.6081
53.6058
53.6034
53.601
53.5986
53.5963
53.5939
53.5915
53.5892
53.5868
53.5844
53.582
53.5797
53.5773
53.5749
53.5726
53.5702
53.5678
53.5655
53.5631
53.5607
53.5584
53.556
53.5536
53.5513
53.5489
53.5466
53.5442
53.5418
53.5395
53.5371
53.5347
53.5324
53.53
53.5277
53.5253
53.5229
53.5206
53.5182
53.5159
53.5135
53.5111
53.5088
53.5064
53.5041
53.5017
53.4994
53.497
53.4946
53.4923
53.4899
53.4876
53.4852
53.4829
53.4805
53.4782
53.4758
53.4735
53.4711
53.4688
53.4664
53.464
53.4617
53.4593
53.457
53.4546
53.4523
53.4499
53.4476
53.4453
53.4429
53.4406
53.4382
53.4359
53.4335
53.4312
53.4288
53.4265
53.4241
53.4218
53.4194
53.4171
53.4148
53.4124
53.4101
53.4077
53.4054
53.403
53.4007
53.3984
53.396
53.3937
53.3913
53.389
53.3867
53.3843
53.382
53.3796
53.3773
53.375
53.3726
53.3703
53.368
53.3656
53.3633
53.3609
53.3586
53.3563
53.3539
53.3516
53.3493
53.3469
53.3446
53.3423
53.3399
53.3376
53.3353
53.3329
53.3306
53.3283
53.3259
53.3236
53.3213
53.319
53.3166
53.3143
53.312
53.3096
53.3073
53.305
53.3027
53.3003
53.298
53.2957
53.2934
53.291
53.2887
53.2864
53.2841
53.2817
53.2794
53.2771
53.2748
53.2724
53.2701
53.2678
53.2655
53.2632
53.2608
53.2585
53.2562
53.2539
53.2516
53.2492
53.2469
53.2446
53.2423
53.24
53.2376
53.2353
53.233
53.2307
53.2284
53.2261
53.2238
53.2214
53.2191
53.2168
53.2145
53.2122
53.2099
53.2076
53.2052
53.2029
53.2006
53.1983
53.196
53.1937
53.1914
53.1891
53.1868
53.1845
53.1821
53.1798
53.1775
53.1752
53.1729
53.1706
53.1683
53.166
53.1637
53.1614
53.1591
53.1568
53.1545
53.1522
53.1499
53.1476
53.1453
53.1429
53.1406
53.1383
53.136
53.1337
53.1314
53.1291
53.1268
53.1245
53.1222
53.1199
53.1176
53.1153
53.113
53.1107
53.1084
53.1061
53.1039
53.1016
53.0993
53.097
53.0947
53.0924
53.0901
53.0878
53.0855
53.0832
53.0809
53.0786
53.0763
53.074
53.0717
53.0694
53.0672
53.0649
53.0626
53.0603
53.058
53.0557
53.0534
53.0511
53.0488
53.0465
53.0443
53.042
53.0397
53.0374
53.0351
53.0328
53.0305
53.0283
53.026
53.0237
53.0214
53.0191
53.0168
53.0145
53.0123
53.01
53.0077
53.0054
53.0031
53.0009
52.9986
52.9963
52.994
52.9917
52.9895
52.9872
52.9849
52.9826
52.9803
52.9781
52.9758
52.9735
52.9712
52.969
52.9667
52.9644
52.9621
52.9599
52.9576
52.9553
52.953
52.9508
52.9485
52.9462
52.9439
52.9417
52.9394
52.9371
52.9349
52.9326
52.9303
52.928
52.9258
52.9235
52.9212
52.919
52.9167
52.9144
52.9122
52.9099
52.9076
52.9054
52.9031
52.9008
52.8986
52.8963
52.894
52.8918
52.8895
52.8872
52.885
52.8827
52.8804
52.8782
52.8759
52.8737
52.8714
52.8691
52.8669
52.8646
52.8624
52.8601
52.8578
52.8556
52.8533
52.8511
52.8488
52.8465
52.8443
52.842
52.8398
52.8375
52.8353
52.833
52.8308
52.8285
52.8262
52.824
52.8217
52.8195
52.8172
52.815
52.8127
52.8105
52.8082
52.806
52.8037
52.8015
52.7992
52.797
52.7947
52.7925
52.7902
52.788
52.7857
52.7835
52.7812
52.779
52.7767
52.7745
52.7722
52.77
52.7678
52.7655
52.7633
52.761
52.7588
52.7565
52.7543
52.752
52.7498
52.7476
52.7453
52.7431
52.7408
52.7386
52.7363
52.7341
52.7319
52.7296
52.7274
52.7252
52.7229
52.7207
52.7184
52.7162
52.714
52.7117
52.7095
52.7073
52.705
52.7028
52.7005
52.6983
52.6961
52.6938
52.6916
52.6894
52.6871
52.6849
52.6827
52.6804
52.6782
52.676
52.6738
52.6715
52.6693
52.6671
52.6648
52.6626
52.6604
52.6581
52.6559
52.6537
52.6515
52.6492
52.647
52.6448
52.6426
52.6403
52.6381
52.6359
52.6337
52.6314
52.6292
52.627
52.6248
52.6225
52.6203
52.6181
52.6159
52.6136
52.6114
52.6092
52.607
52.6048
52.6025
52.6003
52.5981
52.5959
52.5937
52.5914
52.5892
52.587
52.5848
52.5826
52.5804
52.5781
52.5759
52.5737
52.5715
52.5693
52.5671
52.5649
52.5626
52.5604
52.5582
52.556
52.5538
52.5516
52.5494
52.5472
52.5449
52.5427
52.5405
52.5383
52.5361
52.5339
52.5317
52.5295
52.5273
52.5251
52.5229
52.5206
52.5184
52.5162
52.514
52.5118
52.5096
52.5074
52.5052
52.503
52.5008
52.4986
52.4964
52.4942
52.492
52.4898
52.4876
52.4854
52.4832
52.481
52.4788
52.4766
52.4744
52.4722
52.47
52.4678
52.4656
52.4634
52.4612
52.459
52.4568
52.4546
52.4524
52.4502
52.448
52.4458
52.4436
52.4414
52.4392
52.437
52.4348
52.4326
52.4304
52.4282
52.4261
52.4239
52.4217
52.4195
52.4173
52.4151
52.4129
52.4107
52.4085
52.4063
52.4041
52.402
52.3998
52.3976
52.3954
52.3932
52.391
52.3888
52.3866
52.3845
52.3823
52.3801
52.3779
52.3757
52.3735
52.3714
52.3692
52.367
52.3648
52.3626
52.3604
52.3583
52.3561
52.3539
52.3517
52.3495
52.3473
52.3452
52.343
52.3408
52.3386
52.3365
52.3343
52.3321
52.3299
52.3277
52.3256
52.3234
52.3212
52.319
52.3169
52.3147
52.3125
52.3103
52.3082
52.306
52.3038
52.3016
52.2995
52.2973
52.2951
52.293
52.2908
52.2886
52.2864
52.2843
52.2821
52.2799
52.2778
52.2756
52.2734
52.2713
52.2691
52.2669
52.2648
52.2626
52.2604
52.2583
52.2561
52.2539
52.2518
52.2496
52.2474
52.2453
52.2431
52.2409
52.2388
52.2366
52.2344
52.2323
52.2301
52.228
52.2258
52.2236
52.2215
52.2193
52.2172
52.215
52.2128
52.2107
52.2085
52.2064
52.2042
52.202
52.1999
52.1977
52.1956
52.1934
52.1913
52.1891
52.187
52.1848
52.1826
52.1805
52.1783
52.1762
52.174
52.1719
52.1697
52.1676
52.1654
52.1633
52.1611
52.159
52.1568
52.1547
52.1525
52.1504
52.1482
52.1461
52.1439
52.1418
52.1396
52.1375
52.1353
52.1332
52.131
52.1289
52.1267
52.1246
52.1225
52.1203
52.1182
52.116
52.1139
52.1117
52.1096
52.1075
52.1053
52.1032
52.101
52.0989
52.0967
52.0946
52.0925
52.0903
52.0882
52.086
52.0839
52.0818
52.0796
52.0775
52.0754
52.0732
52.0711
52.0689
52.0668
52.0647
52.0625
52.0604
52.0583
52.0561
52.054
52.0519
52.0497
52.0476
52.0455
52.0433
52.0412
52.0391
52.0369
52.0348
52.0327
52.0305
52.0284
52.0263
52.0242
52.022
52.0199
52.0178
52.0156
52.0135
52.0114
52.0093
52.0071
52.005
52.0029
52.0008
51.9986
51.9965
51.9944
51.9923
51.9901
51.988
51.9859
51.9838
51.9816
51.9795
51.9774
51.9753
51.9732
51.971
51.9689
51.9668
51.9647
51.9626
51.9604
51.9583
51.9562
51.9541
51.952
51.9498
51.9477
51.9456