# vtk DataFile Version 2.0
vtk output
ASCII
DATASET STRUCTURED_GRID
DIMENSIONS 50 10 30
POINTS 15000 float
0 0 0
1 0 0
2 0 0
3 0 0
4 0 0
5 0 0
6 0 0
7 0 0
8 0 0
9 0 0
10 0 0
11 0 0
12 0 0
13 0 0
14 0 0
15 0 0
16 0 0
17 0 0
18 0 0
19 0 0
20 0 0
21 0 0
22 0 0
23 0 0
24 0 0
25 0 0
26 0 0
27 0 0
28 0 0
29 0 0
30 0 0
31 0 0
32 0 0
33 0 0
34 0 0
35 0 0
36 0 0
37 0 0
38 0 0
39 0 0
40 0 0
41 0 0
42 0 0
43 0 0
44 0 0
45 0 0
46 0 0
47 0 0
48 0 0
49 0 0
0 1 0
1 1 0
2 1 0
3 1 0
4 1 0
5 1 0
6 1 0
7 1 0
8 1 0
9 1 0
10 1 0
11 1 0
12 1 0
13 1 0
14 1 0
15 1 0
16 1 0
17 1 0
18 1 0
19 1 0
20 1 0
21 1 0
22 1 0
23 1 0
24 1 0
25 1 0
26 1 0
27 1 0
28 1 0
29 1 0
30 1 0
31 1 0
32 1 0
33 1 0
34 1 0
35 1 0
36 1 0
37 1 0
38 1 0
39 1 0
40 1 0
41 1 0
42 1 0
43 1 0
44 1 0
45 1 0
46 1 0
47 1 0
48 1 0
49 1 0
0 2 0
1 2 0
2 2 0
3 2 0
4 2 0
5 2 0
6 2 0
7 2 0
8 2 0
9 2 0
10 2 0
11 2 0
12 2 0
13 2 0
14 2 0
15 2 0
16 2 0
17 2 0
18 2 0
19 2 0
20 2 0
21 2 0
22 2 0
23 2 0
24 2 0
25 2 0
26 2 0
27 2 0
28 2 0
29 2 0
30 2 0
31 2 0
32 2 0
33 2 0
34 2 0
35 2 0
36 2 0
37 2 0
38 2 0
39 2 0
40 2 0
41 2 0
42 2 0
43 2 0
44 2 0
45 2 0
46 2 0
47 2 0
48 2 0
49 2 0
0 3 0
1 3 0
2 3 0
3 3 0
4 3 0
5 3 0
6 3 0
7 3 0
8 3 0
9 3 0
10 3 0
11 3 0
12 3 0
13 3 0
14 3 0
15 3 0
16 3 0
17 3 0
18 3 0
19 3 0
20 3 0
21 3 0
22 3 0
23 3 0
24 3 0
25 3 0
26 3 0
27 3 0
28 3 0
29 3 0
30 3 0
31 3 0
32 3 0
33 3 0
34 3 0
35 3 0
36 3 0
37 3 0
38 3 0
39 3 0
40 3 0
41 3 0
42 3 0
43 3 0
44 3 0
45 3 0
46 3 0
47 3 0
48 3 0
49 3 0
0 4 0
1 4 0
2 4 0
3 4 0
4 4 0
5 4 0
6 4 0
7 4 0
8 4 0
9 4 0
10 4 0
11 4 0
12 4 0
13 4 0
14 4 0
15 4 0
16 4 0
17 4 0
18 4 0
19 4 0
20 4 0
21 4 0
22 4 0
23 4 0
24 4 0
25 4 0
26 4 0
27 4 0
28 4 0
29 4 0
30 4 0
31 4 0
32 4 0
33 4 0
34 4 0
35 4 0
36 4 0
37 4 0
38 4 0
39 4 0
40 4 0
41 4 0
42 4 0
43 4 0
44 4 0
45 4 0
46 4 0
47 4 0
48 4 0
49 4 0
0 5 0
1 5 0
2 5 0
3 5 0
4 5 0
5 5 0
6 5 0
7 5 0
8 5 0
9 5 0
10 5 0
11 5 0
12 5 0
13 5 0
14 5 0
15 5 0
16 5 0
17 5 0
18 5 0
19 5 0
20 5 0
21 5 0
22 5 0
23 5 0
24 5 0
25 5 0
26 5 0
27 5 0
28 5 0
29 5 0
30 5 0
31 5 0
32 5 0
33 5 0
34 5 0
35 5 0
36 5 0
37 5 0
38 5 0
39 5 0
40 5 0
41 5 0
42 5 0
43 5 0
44 5 0
45 5 0
46 5 0
47 5 0
48 5 0
49 5 0
0 6 0
1 6 0
2 6 0
3 6 0
4 6 0
5 6 0
6 6 0
7 6 0
8 6 0
9 6 0
10 6 0
11 6 0
12 6 0
13 6 0
14 6 0
15 6 0
16 6 0
17 6 0
18 6 0
19 6 0
20 6 0
21 6 0
22 6 0
23 6 0
24 6 0
25 6 0
26 6 0
27 6 0
28 6 0
29 6 0
30 6 0
31 6 0
32 6 0
33 6 0
34 6 0
35 6 0
36 6 0
37 6 0
38 6 0
39 6 0
40 6 0
41 6 0
42 6 0
43 6 0
44 6 0
45 6 0
46 6 0
47 6 0
48 6 0
49 6 0
0 7 0
1 7 0
2 7 0
3 7 0
4 7 0
5 7 0
6 7 0
7 7 0
8 7 0
9 7 0
10 7 0
11 7 0
12 7 0
13 7 0
14 7 0
15 7 0
16 7 0
17 7 0
18 7 0
19 7 0
20 7 0
21 7 0
22 7 0
23 7 0
24 7 0
25 7 0
26 7 0
27 7 0
28 7 0
29 7 0
30 7 0
31 7 0
32 7 0
33 7 0
34 7 0
35 7 0
36 7 0
37 7 0
38 7 0
39 7 0
40 7 0
41 7 0
42 7 0
43 7 0
44 7 0
45 7 0
46 7 0
47 7 0
48 7 0
49 7 0
0 8 0
1 8 0
2 8 0
3 8 0
4 8 0
5 8 0
6 8 0
7 8 0
8 8 0
9 8 0
10 8 0
11 8 0
12 8 0
13 8 0
14 8 0
15 8 0
16 8 0
17 8 0
18 8 0
19 8 0
20 8 0
21 8 0
22 8 0
23 8 0
24 8 0
25 8 0
26 8 0
27 8 0
28 8 0
29 8 0
30 8 0
31 8 0
32 8 0
33 8 0
34 8 0
35 8 0
36 8 0
37 8 0
38 8 0
39 8 0
40 8 0
41 8 0
42 8 0
43 8 0
44 8 0
45 8 0
46 8 0
47 8 0
48 8 0
49 8 0
0 9 0
1 9 0
2 9 0
3 9 0
4 9 0
5 9 0
6 9 0
7 9 0
8 9 0
9 9 0
10 9 0
11 9 0
12 9 0
13 9 0
14 9 0
15 9 0
16 9 0
17 9 0
18 9 0
19 9 0
20 9 0
21 9 0
22 9 0
23 9 0
24 9 0
25 9 0
26 9 0
27 9 0
28 9 0
29 9 0
30 9 0
31 9 0
32 9 0
33 9 0
34 9 0
35 9 0
36 9 0
37 9 0
38 9 0
39 9 0
40 9 0
41 9 0
42 9 0
43 9 0
44 9 0
45 9 0
46 9 0
47 9 0
48 9 0
49 9 0
0 0 1
1 0 1
2 0 1
3 0 1
4 0 1
5 0 1
6 0 1
7 0 1
8 0 1
9 0 1
10 0 1
11 0 1
12 0 1
13 0 1
14 0 1
15 0 1
16 0 1
17 0 1
18 0 1
19 0 1
20 0 1
21 0 1
22 0 1
23 0 1
24 0 1
25 0 1
26 0 1
27 0 1
28 0 1
29 0 1
30 0 1
31 0 1
32 0 1
33 0 1
34 0 1
35 0 1
36 0 1
37 0 1
38 0 1
39 0 1
40 0 1
41 0 1
42 0 1
43 0 1
44 0 1
45 0 1
46 0 1
47 0 1
48 0 1
49 0 1
0 1 1
1 1 1
2 1 1
3 1 1
4 1 1
5 1 1
6 1 1
7 1 1
8 1 1
9 1 1
10 1 1
11 1 1
12 1 1
13 1 1
14 1 1
15 1 1
16 1 1
17 1 1
18 1 1
19 1 1
20 1 1
21 1 1
22 1 1
23 1 1
24 1 1
25 1 1
26 1 1
27 1 1
28 1 1
29 1 1
30 1 1
31 1 1
32 1 1
33 1 1
34 1 1
35 1 1
36 1 1
37 1 1
38 1 1
39 1 1
40 1 1
41 1 1
42 1 1
43 1 1
44 1 1
45 1 1
46 1 1
47 1 1
48 1 1
49 1 1
0 2 1
1 2 1
2 2 1
3 2 1
4 2 1
5 2 1
6 2 1
7 2 1
8 2 1
9 2 1
10 2 1
11 2 1
12 2 1
13 2 1
14 2 1
15 2 1
16 2 1
17 2 1
18 2 1
19 2 1
20 2 1
21 2 1
22 2 1
23 2 1
24 2 1
25 2 1
26 2 1
27 2 1
28 2 1
29 2 1
30 2 1
31 2 1
32 2 1
33 2 1
34 2 1
35 2 1
36 2 1
37 2 1
38 2 1
39 2 1
40 2 1
41 2 1
42 2 1
43 2 1
44 2 1
45 2 1
46 2 1
47 2 1
48 2 1
49 2 1
0 3 1
1 3 1
2 3 1
3 3 1
4 3 1
5 3 1
6 3 1
7 3 1
8 3 1
9 3 1
10 3 1
11 3 1
12 3 1
13 3 1
14 3 1
15 3 1
16 3 1
17 3 1
18 3 1
19 3 1
20 3 1
21 3 1
22 3 1
23 3 1
24 3 1
25 3 1
26 3 1
27 3 1
28 3 1
29 3 1
30 3 1
31 3 1
32 3 1
33 3 1
34 3 1
35 3 1
36 3 1
37 3 1
38 3 1
39 3 1
40 3 1
41 3 1
42 3 1
43 3 1
44 3 1
45 3 1
46 3 1
47 3 1
48 3 1
49 3 1
0 4 1
1 4 1
2 4 1
3 4 1
4 4 1
5 4 1
6 4 1
7 4 1
8 4 1
9 4 1
10 4 1
11 4 1
12 4 1
13 4 1
14 4 1
15 4 1
16 4 1
17 4 1
18 4 1
19 4 1
20 4 1
21 4 1
22 4 1
23 4 1
24 4 1
25 4 1
26 4 1
27 4 1
28 4 1
29 4 1
30 4 1
31 4 1
32 4 1
33 4 1
34 4 1
35 4 1
36 4 1
37 4 1
38 4 1
39 4 1
40 4 1
41 4 1
42 4 1
43 4 1
44 4 1
45 4 1
46 4 1
47 4 1
48 4 1
49 4 1
0 5 1
1 5 1
2 5 1
3 5 1
4 5 1
5 5 1
6 5 1
7 5 1
8 5 1
9 5 1
10 5 1
11 5 1
12 5 1
13 5 1
14 5 1
15 5 1
16 5 1
17 5 1
18 5 1
19 5 1
20 5 1
21 5 1
22 5 1
23 5 1
24 5 1
25 5 1
26 5 1
27 5 1
28 5 1
29 5 1
30 5 1
31 5 1
32 5 1
33 5 1
34 5 1
35 5 1
36 5 1
37 5 1
38 5 1
39 5 1
40 5 1
41 5 1
42 5 1
43 5 1
44 5 1
45 5 1
46 5 1
47 5 1
48 5 1
49 5 1
0 6 1
1 6 1
2 6 1
3 6 1
4 6 1
5 6 1
6 6 1
7 6 1
8 6 1
9 6 1
10 6 1
11 6 1
12 6 1
13 6 1
14 6 1
15 6 1
16 6 1
17 6 1
18 6 1
19 6 1
20 6 1
21 6 1
22 6 1
23 6 1
24 6 1
25 6 1
26 6 1
27 6 1
28 6 1
29 6 1
30 6 1
31 6 1
32 6 1
33 6 1
34 6 1
35 6 1
36 6 1
37 6 1
38 6 1
39 6 1
40 6 1
41 6 1
42 6 1
43 6 1
44 6 1
45 6 1
46 6 1
47 6 1
48 6 1
49 6 1
0 7 1
1 7 1
2 7 1
3 7 1
4 7 1
5 7 1
6 7 1
7 7 1
8 7 1
9 7 1
10 7 1
11 7 1
12 7 1
13 7 1
14 7 1
15 7 1
16 7 1
17 7 1
18 7 1
19 7 1
20 7 1
21 7 1
22 7 1
23 7 1
24 7 1
25 7 1
26 7 1
27 7 1
28 7 1
29 7 1
30 7 1
31 7 1
32 7 1
33 7 1
34 7 1
35 7 1
36 7 1
37 7 1
38 7 1
39 7 1
40 7 1
41 7 1
42 7 1
43 7 1
44 7 1
45 7 1
46 7 1
47 7 1
48 7 1
49 7 1
0 8 1
1 8 1
2 8 1
3 8 1
4 8 1
5 8 1
6 8 1
7 8 1
8 8 1
9 8 1
10 8 1
11 8 1
12 8 1
13 8 1
14 8 1
15 8 1
16 8 1
17 8 1
18 8 1
19 8 1
20 8 1
21 8 1
22 8 1
23 8 1
24 8 1
25 8 1
26 8 1
27 8 1
28 8 1
29 8 1
30 8 1
31 8 1
32 8 1
33 8 1
34 8 1
35 8 1
36 8 1
37 8 1
38 8 1
39 8 1
40 8 1
41 8 1
42 8 1
43 8 1
44 8 1
45 8 1
46 8 1
47 8 1
48 8 1
49 8 1
0 9 1
1 9 1
2 9 1
3 9 1
4 9 1
5 9 1
6 9 1
7 9 1
8 9 1
9 9 1
10 9 1
11 9 1
12 9 1
13 9 1
14 9 1
15 9 1
16 9 1
17 9 1
18 9 1
19 9 1
20 9 1
21 9 1
22 9 1
23 9 1
24 9 1
25 9 1
26 9 1
27 9 1
28 9 1
29 9 1
30 9 1
31 9 1
32 9 1
33 9 1
34 9 1
35 9 1
36 9 1
37 9 1
38 9 1
39 9 1
40 9 1
41 9 1
42 9 1
43 9 1
44 9 1
45 9 1
46 9 1
47 9 1
48 9 1
49 9 1
0 0 2
1 0 2
2 0 2
3 0 2
4 0 2
5 0 2
6 0 2
7 0 2
8 0 2
9 0 2
10 0 2
11 0 2
12 0 2
13 0 2
14 0 2
15 0 2
16 0 2
17 0 2
18 0 2
19 0 2
20 0 2
21 0 2
22 0 2
23 0 2
24 0 2
25 0 2
26 0 2
27 0 2
28 0 2
29 0 2
30 0 2
31 0 2
32 0 2
33 0 2
34 0 2
35 0 2
36 0 2
37 0 2
38 0 2
39 0 2
40 0 2
41 0 2
42 0 2
43 0 2
44 0 2
45 0 2
46 0 2
47 0 2
48 0 2
49 0 2
0 1 2
1 1 2
2 1 2
3 1 2
4 1 2
5 1 2
6 1 2
7 1 2
8 1 2
9 1 2
10 1 2
11 1 2
12 1 2
13 1 2
14 1 2
15 1 2
16 1 2
17 1 2
18 1 2
19 1 2
20 1 2
21 1 2
22 1 2
23 1 2
24 1 2
25 1 2
26 1 2
27 1 2
28 1 2
29 1 2
30 1 2
31 1 2
32 1 2
33 1 2
34 1 2
35 1 2
36 1 2
37 1 2
38 1 2
39 1 2
40 1 2
41 1 2
42 1 2
43 1 2
44 1 2
45 1 2
46 1 2
47 1 2
48 1 2
49 1 2
0 2 2
1 2 2
2 2 2
3 2 2
4 2 2
5 2 2
6 2 2
7 2 2
8 2 2
9 2 2
10 2 2
11 2 2
12 2 2
13 2 2
14 2 2
15 2 2
16 2 2
17 2 2
18 2 2
19 2 2
20 2 2
21 2 2
22 2 2
23 2 2
24 2 2
25 2 2
26 2 2
27 2 2
28 2 2
29 2 2
30 2 2
31 2 2
32 2 2
33 2 2
34 2 2
35 2 2
36 2 2
37 2 2
38 2 2
39 2 2
40 2 2
41 2 2
42 2 2
43 2 2
44 2 2
45 2 2
46 2 2
47 2 2
48 2 2
49 2 2
0 3 2
1 3 2
2 3 2
3 3 2
4 3 2
5 3 2
6 3 2
7 3 2
8 3 2
9 3 2
10 3 2
11 3 2
12 3 2
13 3 2
14 3 2
15 3 2
16 3 2
17 3 2
18 3 2
19 3 2
20 3 2
21 3 2
22 3 2
23 3 2
24 3 2
25 3 2
26 3 2
27 3 2
28 3 2
29 3 2
30 3 2
31 3 2
32 3 2
33 3 2
34 3 2
35 3 2
36 3 2
37 3 2
38 3 2
39 3 2
40 3 2
41 3 2
42 3 2
43 3 2
44 3 2
45 3 2
46 3 2
47 3 2
48 3 2
49 3 2
0 4 2
1 4 2
2 4 2
3 4 2
4 4 2
5 4 2
6 4 2
7 4 2
8 4 2
9 4 2
10 4 2
11 4 2
12 4 2
13 4 2
14 4 2
15 4 2
16 4 2
17 4 2
18 4 2
19 4 2
20 4 2
21 4 2
22 4 2
23 4 2
24 4 2
25 4 2
26 4 2
27 4 2
28 4 2
29 4 2
30 4 2
31 4 2
32 4 2
33 4 2
34 4 2
35 4 2
36 4 2
37 4 2
38 4 2
39 4 2
40 4 2
41 4 2
42 4 2
43 4 2
44 4 2
45 4 2
46 4 2
47 4 2
48 4 2
49 4 2
0 5 2
1 5 2
2 5 2
3 5 2
4 5 2
5 5 2
6 5 2
7 5 2
8 5 2
9 5 2
10 5 2
11 5 2
12 5 2
13 5 2
14 5 2
15 5 2
16 5 2
17 5 2
18 5 2
19 5 2
20 5 2
21 5 2
22 5 2
23 5 2
24 5 2
25 5 2
26 5 2
27 5 2
28 5 2
29 5 2
30 5 2
31 5 2
32 5 2
33 5 2
34 5 2
35 5 2
36 5 2
37 5 2
38 5 2
39 5 2
40 5 2
41 5 2
42 5 2
43 5 2
44 5 2
45 5 2
46 5 2
47 5 2
48 5 2
49 5 2
0 6 2
1 6 2
2 6 2
3 6 2
4 6 2
5 6 2
6 6 2
7 6 2
8 6 2
9 6 2
10 6 2
11 6 2
12 6 2
13 6 2
14 6 2
15 6 2
16 6 2
17 6 2
18 6 2
19 6 2
20 6 2
21 6 2
22 6 2
23 6 2
24 6 2
25 6 2
26 6 2
27 6 2
28 6 2
29 6 2
30 6 2
31 6 2
32 6 2
33 6 2
34 6 2
35 6 2
36 6 2
37 6 2
38 6 2
39 6 2
40 6 2
41 6 2
42 6 2
43 6 2
44 6 2
45 6 2
46 6 2
47 6 2
48 6 2
49 6 2
0 7 2
1 7 2
2 7 2
3 7 2
4 7 2
5 7 2
6 7 2
7 7 2
8 7 2
9 7 2
10 7 2
11 7 2
12 7 2
13 7 2
14 7 2
15 7 2
16 7 2
17 7 2
18 7 2
19 7 2
20 7 2
21 7 2
22 7 2
23 7 2
24 7 2
25 7 2
26 7 2
27 7 2
28 7 2
29 7 2
30 7 2
31 7 2
32 7 2
33 7 2
34 7 2
35 7 2
36 7 2
37 7 2
38 7 2
39 7 2
40 7 2
41 7 2
42 7 2
43 7 2
44 7 2
45 7 2
46 7 2
47 7 2
48 7 2
49 7 2
0 8 2
1 8 2
2 8 2
3 8 2
4 8 2
5 8 2
6 8 2
7 8 2
8 8 2
9 8 2
10 8 2
11 8 2
12 8 2
13 8 2
14 8 2
15 8 2
16 8 2
17 8 2
18 8 2
19 8 2
20 8 2
21 8 2
22 8 2
23 8 2
24 8 2
25 8 2
26 8 2
27 8 2
28 8 2
29 8 2
30 8 2
31 8 2
32 8 2
33 8 2
34 8 2
35 8 2
36 8 2
37 8 2
38 8 2
39 8 2
40 8 2
41 8 2
42 8 2
43 8 2
44 8 2
45 8 2
46 8 2
47 8 2
48 8 2
49 8 2
0 9 2
1 9 2
2 9 2
3 9 2
4 9 2
[...]
POINT_DATA 15000
SCALARS sol416 float
LOOKUP_TABLE default
58.4498
58.4468
58.4437
58.4407
58.4376
58.4346
58.4315
58.4285
58.4255
58.4224
58.4194
58.4163
58.4133
58.4102
58.4072
58.4041
58.4011
58.3981
58.395
58.392
58.3889
58.3859
58.3829
58.3798
58.3768
58.3737
58.3707
58.3677
58.3646
58.3616
58.3585
58.3555
58.3525
58.3494
58.3464
58.3434
58.3403
58.3373
58.3343
58.3312
58.3282
58.3252
58.3221
58.3191
58.3161
58.313
58.31
58.307
58.304
58.3009
58.2979
58.2949
58.2918
58.2888
58.2858
58.2828
58.2797
58.2767
58.2737
58.2707
58.2676
58.2646
58.2616
58.2586
58.2555
58.2525
58.2495
58.2465
58.2434
58.2404
58.2374
58.2344
58.2314
58.2283
58.2253
58.2223
58.2193
58.2163
58.2132
58.2102
58.2072
58.2042
58.2012
58.1982
58.1951
58.1921
58.1891
58.1861
58.1831
58.1801
58.1771
58.1741
58.171
58.168
58.165
58.162
58.159
58.156
58.153
58.15
58.147
58.144
58.1409
58.1379
58.1349
58.1319
58.1289
58.1259
58.1229
58.1199
58.1169
58.1139
58.1109
58.1079
58.1049
58.1019
58.0989
58.0959
58.0929
58.0899
58.0869
58.0839
58.0809
58.0779
58.0749
58.0719
58.0689
58.0659
58.0629
58.0599
58.0569
58.0539
58.0509
58.0479
58.0449
58.0419
58.0389
58.0359
58.0329
58.0299
58.0269
58.0239
58.021
58.018
58.015
58.012
58.009
58.006
58.003
58
57.997
57.994
57.9911
57.9881
57.9851
57.9821
57.9791
57.9761
57.9731
57.9701
57.9672
57.9642
57.9612
57.9582
57.9552
57.9522
57.9493
57.9463
57.9433
57.9403
57.9373
57.9344
57.9314
57.9284
57.9254
57.9224
57.9195
57.9165
57.9135
57.9105
57.9076
57.9046
57.9016
57.8986
57.8956
57.8927
57.8897
57.8867
57.8838
57.8808
57.8778
57.8748
57.8719
57.8689
57.8659
57.8629
57.86
57.857
57.854
57.8511
57.8481
57.8451
57.8422
57.8392
57.8362
57.8333
57.8303
57.8273
57.8244
57.8214
57.8184
57.8155
57.8125
57.8095
57.8066
57.8036
57.8007
57.7977
57.7947
57.7918
57.7888
57.7858
57.7829
57.7799
57.777
57.774
57.7711
57.7681
57.7651
57.7622
57.7592
57.7563
57.7533
57.7504
57.7474
57.7444
57.7415
57.7385
57.7356
57.7326
57.7297
57.7267
57.7238
57.7208
57.7179
57.7149
57.712
57.709
57.7061
57.7031
57.7002
57.6972
57.6943
57.6913
57.6884
57.6854
57.6825
57.6795
57.6766
57.6736
57.6707
57.6678
57.6648
57.6619
57.6589
57.656
57.653
57.6501
57.6472
57.6442
57.6413
57.6383
57.6354
57.6325
57.6295
57.6266
57.6236
57.6207
57.6178
57.6148
57.6119
57.609
57.606
57.6031
57.6001
57.5972
57.5943
57.5913
57.5884
57.5855
57.5825
57.5796
57.5767
57.5737
57.5708
57.5679
57.5649
57.562
57.5591
57.5562
57.5532
57.5503
57.5474
57.5444
57.5415
57.5386
57.5357
57.5327
57.5298
57.5269
57.524
57.521
57.5181
57.5152
57.5123
57.5093
57.5064
57.5035
57.5006
57.4977
57.4947
57.4918
57.4889
57.486
57.4831
57.4801
57.4772
57.4743
57.4714
57.4685
57.4655
57.4626
57.4597
57.4568
57.4539
57.451
57.448
57.4451
57.4422
57.4393
57.4364
57.4335
57.4306
57.4277
57.4247
57.4218
57.4189
57.416
57.4131
57.4102
57.4073
57.4044
57.4015
57.3986
57.3956
57.3927
57.3898
57.3869
57.384
57.3811
57.3782
57.3753
57.3724
57.3695
57.3666
57.3637
57.3608
57.3579
57.355
57.3521
57.3492
57.3463
57.3434
57.3405
57.3376
57.3347
57.3318
57.3289
57.326
57.3231
57.3202
57.3173
57.3144
57.3115
57.3086
57.3057
57.3028
57.2999
57.297
57.2941
57.2912
57.2883
57.2854
57.2826
57.2797
57.2768
57.2739
57.271
57.2681
57.2652
57.2623
57.2594
57.2565
57.2537
57.2508
57.2479
57.245
57.2421
57.2392
57.2363
57.2334
57.2306
57.2277
57.2248
57.2219
57.219
57.2161
57.2133
57.2104
57.2075
57.2046
57.2017
57.1988
57.196
57.1931
57.1902
57.1873
57.1844
57.1816
57.1787
57.1758
57.1729
57.1701
57.1672
57.1643
57.1614
57.1586
57.1557
57.1528
57.1499
57.1471
57.1442
57.1413
57.1384
57.1356
57.1327
57.1298
57.1269
57.1241
57.1212
57.1183
57.1155
57.1126
57.1097
57.1069
57.104
57.1011
57.0983
57.0954
57.0925
57.0897
57.0868
57.0839
57.0811
57.0782
57.0753
57.0725
57.0696
57.0667
57.0639
57.061
57.0582
57.0553
57.0524
57.0496
57.0467
57.0439
57.041
57.0381
57.0353
57.0324
57.0296
57.0267
57.0238
57.021
57.0181
57.0153
57.0124
57.0096
57.0067
57.0039
57.001
56.9981
56.9953
56.9924
56.9896
56.9867
56.9839
56.981
56.9782
56.9753
56.9725
56.9696
56.9668
56.9639
56.9611
56.9582
56.9554
56.9525
56.9497
56.9469
56.944
56.9412
56.9383
56.9355
56.9326
56.9298
56.9269
56.9241
56.9212
56.9184
56.9156
56.9127
56.9099
56.907
56.9042
56.9014
56.8985
56.8957
56.8928
56.89
56.8872
56.8843
56.8815
56.8786
56.8758
56.873
56.8701
56.8673
56.8645
56.8616
56.8588
56.856
56.8531
56.8503
56.8475
56.8446
56.8418
56.839
56.8361
56.8333
56.8305
56.8276
56.8248
56.822
56.8192
56.8163
56.8135
56.8107
56.8078
56.805
56.8022
56.7994
56.7965
56.7937
56.7909
56.7881
56.7852
56.7824
56.7796
56.7768
56.7739
56.7711
56.7683
56.7655
56.7627
56.7598
56.757
56.7542
56.7514
56.7486
56.7457
56.7429
56.7401
56.7373
56.7345
56.7316
56.7288
56.726
56.7232
56.7204
56.7176
56.7147
56.7119
56.7091
56.7063
56.7035
56.7007
56.6979
56.6951
56.6922
56.6894
56.6866
56.6838
56.681
56.6782
56.6754
56.6726
56.6698
56.667
56.6641
56.6613
56.6585
56.6557
56.6529
56.6501
56.6473
56.6445
56.6417
56.6389
56.6361
56.6333
56.6305
56.6277
56.6249
56.6221
56.6193
56.6165
56.6137
56.6109
56.6081
56.6053
56.6025
56.5997
56.5969
56.5941
56.5913
56.5885
56.5857
56.5829
56.5801
56.5773
56.5745
56.5717
56.5689
56.5661
56.5633
56.5605
56.5577
56.5549
56.5522
56.5494
56.5466
56.5438
56.541
56.5382
56.5354
56.5326
56.5298
56.527
56.5242
56.5215
56.5187
56.5159
56.5131
56.5103
56.5075
56.5047
56.502
56.4992
56.4964
56.4936
56.4908
56.488
56.4853
56.4825
56.4797
56.4769
56.4741
56.4713
56.4686
56.4658
56.463
56.4602
56.4574
56.4547
56.4519
56.4491
56.4463
56.4435
56.4408
56.438
56.4352
56.4324
56.4297
56.4269
56.4241
56.4213
56.4186
56.4158
56.413
56.4102
56.4075
56.4047
56.4019
56.3992
56.3964
56.3936
56.3909
56.3881
56.3853
56.3825
56.3798
56.377
56.3742
56.3715
56.3687
56.3659
56.3632
56.3604
56.3576
56.3549
56.3521
56.3493
56.3466
56.3438
56.3411
56.3383
56.3355
56.3328
56.33
56.3272
56.3245
56.3217
56.319
56.3162
56.3134
56.3107
56.3079
56.3052
56.3024
56.2997
56.2969
56.2941
56.2914
56.2886
56.2859
56.2831
56.2804
56.2776
56.2749
56.2721
56.2693
56.2666
56.2638
56.2611
56.2583
56.2556
56.2528
56.2501
56.2473
56.2446
56.2418
56.2391
56.2363
56.2336
56.2308
56.2281
56.2253
56.2226
56.2199
56.2171
56.2144
56.2116
56.2089
56.2061
56.2034
56.2006
56.1979
56.1952
56.1924
56.1897
56.1869
56.1842
56.1814
56.1787
56.176
56.1732
56.1705
56.1677
56.165
56.1623
56.1595
56.1568
56.1541
56.1513
56.1486
56.1458
56.1431
56.1404
56.1376
56.1349
56.1322
56.1294
56.1267
56.124
56.1212
56.1185
56.1158
56.113
56.1103
56.1076
56.1048
56.1021
56.0994
56.0967
56.0939
56.0912
56.0885
56.0857
56.083
56.0803
56.0776
56.0748
56.0721
56.0694
56.0667
56.0639
56.0612
56.0585
56.0558
56.053
56.0503
56.0476
56.0449
56.0422
56.0394
56.0367
56.034
56.0313
56.0286
56.0258
56.0231
56.0204
56.0177
56.015
56.0122
56.0095
56.0068
56.0041
56.0014
55.9987
55.9959
55.9932
55.9905
55.9878
55.9851
55.9824
55.9797
55.9769
55.9742
55.9715
55.9688
55.9661
55.9634
55.9607
55.958
55.9553
55.9526
55.9498
55.9471
55.9444
55.9417
55.939
55.9363
55.9336
55.9309
55.9282
55.9255
55.9228
55.9201
55.9174
55.9147
55.912
55.9093
55.9066
55.9039
55.9012
55.8984
55.8957
55.893
55.8903
55.8876
55.8849
55.8822
55.8795
55.8769
55.8742
55.8715
55.8688
55.8661
55.8634
55.8607
55.858
55.8553
55.8526
55.8499
55.8472
55.8445
55.8418
55.8391
55.8364
55.8337
55.831
55.8283
55.8257
55.823
55.8203
55.8176
55.8149
55.8122
55.8095
55.8068
55.8041
55.8014
55.7988
55.7961
55.7934
55.7907
55.788
55.7853
55.7826
55.78
55.7773
55.7746
55.7719
55.7692
55.7665
55.7639
55.7612
55.7585
55.7558
55.7531
55.7504
55.7478
55.7451
55.7424
55.7397
55.737
55.7344
55.7317
55.729
55.7263
55.7237
55.721
55.7183
55.7156
55.713
55.7103
55.7076
55.7049
55.7023
55.6996
55.6969
55.6942
55.6916
55.6889
55.6862
55.6835
55.6809
55.6782
55.6755
55.6729
55.6702
55.6675
55.6649
55.6622
55.6595
55.6569
55.6542
55.6515
55.6489
55.6462
55.6435
55.6409
55.6382
55.6355
55.6329
55.6302
55.6275
55.6249
55.6222
55.6195
55.6169
55.6142
55.6116
55.6089
55.6062
55.6036
55.6009
55.5983
55.5956
55.5929
55.5903
55.5876
55.585
55.5823
55.5797
55.577
55.5743
55.5717
55.569
55.5664
55.5637
55.5611
55.5584
55.5558
55.5531
55.5505
55.5478
55.5452
55.5425
55.5399
55.5372
55.5346
55.5319
55.5293
55.5266
55.524
55.5213
55.5187
55.516
55.5134
55.5107
55.5081
55.5054
55.5028
55.5001
55.4975
55.4948
55.4922
55.4896
55.4869
55.4843
55.4816
55.479
55.4763
55.4737
55.4711
55.4684
55.4658
55.4631
55.4605
55.4579
55.4552
55.4526
55.4499
55.4473
55.4447
55.442
55.4394
55.4368
55.4341
55.4315
55.4288
55.4262
55.4236
55.4209
55.4183
55.4157
55.413
55.4104
55.4078
55.4051
55.4025
55.3999
55.3972
55.3946
55.392
55.3894
55.3867
55.3841
55.3815
55.3788
55.3762
55.3736
55.371
55.3683
55.3657
55.3631
55.3605
55.3578
55.3552
55.3526
55.35
55.3473
55.3447
55.3421
55.3395
55.3368
55.3342
55.3316
55.329
55.3264
55.3237
55.3211
55.3185
55.3159
55.3133
55.3106
55.308
55.3054
55.3028
55.3002
55.2975
55.2949
55.2923
55.2897
55.2871
55.2845
55.2819
55.2792
55.2766
55.274
55.2714
55.2688
55.2662
55.2636
55.261
55.2583
55.2557
55.2531
55.2505
55.2479
55.2453
55.2427
55.2401
55.2375
55.2349
55.2322
55.2296
55.227
55.2244
55.2218
55.2192
55.2166
55.214
55.2114
55.2088
55.2062
55.2036
55.201
55.1984
55.1958
55.1932
55.1906
55.188
55.1854
55.1828
55.1802
55.1776
55.175
55.1724
55.1698
55.1672
55.1646
55.162
55.1594
55.1568
55.1542
55.1516
55.149
55.1464
55.1438
55.1412
55.1386
55.136
55.1334
55.1308
55.1283
55.1257
55.1231
55.1205
55.1179
55.1153
55.1127
55.1101
55.1075
55.1049
55.1023
55.0998
55.0972
55.0946
55.092
55.0894
55.0868
55.0842
55.0817
55.0791
55.0765
55.0739
55.0713
55.0687
55.0661
55.0636
55.061
55.0584
55.0558
55.0532
55.0506
55.0481
55.0455
55.0429
55.0403
55.0377
55.0352
55.0326
55.03
55.0274
55.0249
55.0223
55.0197
55.0171
55.0145
55.012
55.0094
55.0068
55.0042
55.0017
54.9991
54.9965
54.9939
54.9914
54.9888
54.9862
54.9837
54.9811
54.9785
54.9759
54.9734
54.9708
54.9682
54.9657
54.9631
54.9605
54.958
54.9554
54.9528
54.9503
54.9477
54.9451
54.9426
54.94
54.9374
54.9349
54.9323
54.9297
54.9272
54.9246
54.922
54.9195
54.9169
54.9144
54.9118
54.9092
54.9067
54.9041
54.9015
54.899
54.8964
54.8939
54.8913
54.8888
54.8862
54.8836
54.8811
54.8785
54.876
54.8734
54.8709
54.8683
54.8657
54.8632
54.8606
54.8581
54.8555
54.853
54.8504
54.8479
54.8453
54.8428
54.8402
54.8377
54.8351
54.8326
54.83
54.8275
54.8249
54.8224
54.8198
54.8173
54.8147
54.8122
54.8096
54.8071
54.8045
54.802
54.7994
54.7969
54.7944
54.7918
54.7893
54.7867
54.7842
54.7816
54.7791
54.7765
54.774
54.7715
54.7689
54.7664
54.7638
54.7613
54.7588
54.7562
54.7537
54.7511
54.7486
54.7461
54.7435
54.741
54.7385
54.7359
54.7334
54.7309
54.7283
54.7258
54.7232
54.7207
54.7182
54.7156
54.7131
54.7106
54.708
54.7055
54.703
54.7005
54.6979
54.6954
54.6929
54.6903
54.6878
54.6853
54.6827
54.6802
54.6777
54.6752
54.6726
54.6701
54.6676
54.6651
54.6625
54.66
54.6575
54.655
54.6524
54.6499
54.6474
54.6449
54.6423
54.6398
54.6373
54.6348
54.6322
54.6297
54.6272
54.6247
54.6222
54.6196
54.6171
54.6146
54.6121
54.6096
54.6071
54.6045
54.602
54.5995
54.597
54.5945
54.592
54.5894
54.5869
54.5844
54.5819
54.5794
54.5769
54.5744
54.5718
54.5693
54.5668
54.5643
54.5618
54.5593
54.5568
54.5543
54.5518
54.5492
54.5467
54.5442
54.5417
54.5392
54.5367
54.5342
54.5317
54.5292
54.5267
54.5242
54.5217
54.5192
54.5167
54.5142
54.5117
54.5091
54.5066
54.5041
54.5016
54.4991
54.4966
54.4941
54.4916
54.4891
54.4866
54.4841
54.4816
54.4791
54.4766
54.4741
54.4716
54.4691
54.4666
54.4641
54.4617
54.4592
54.4567
54.4542
54.4517
54.4492
54.4467
54.4442
54.4417
54.4392
54.4367
54.4342
54.4317
54.4292
54.4267
54.4242
54.4218
54.4193
54.4168
54.4143
54.4118
54.4093
54.4068
54.4043
54.4018
54.3994
54.3969
54.3944
54.3919
54.3894
54.3869
54.3844
54.382
54.3795
54.377
54.3745
54.372
54.3695
54.3671
54.3646
54.3621
54.3596
54.3571
54.3546
54.3522
54.3497
54.3472
54.3447
54.3422
54.3398
54.3373
54.3348
54.3323
54.3299
54.3274
54.3249
54.3224
54.3199
54.3175
54.315
54.3125
54.31
54.3076
54.3051
54.3026
54.3002
54.2977
54.2952
54.2927
54.2903
54.2878
54.2853
54.2829
54.2804
54.2779
54.2754
54.273
54.2705
54.268
54.2656
54.2631
54.2606
54.2582
54.2557
54.2532
54.2508
54.2483
54.2458
54.2434
54.2409
54.2384
54.236
54.2335
54.2311
54.2286
54.2261
54.2237
54.2212
54.2187
54.2163
54.2138
54.2114
54.2089
54.2064
54.204
54.2015
54.1991
54.1966
54.1942
54.1917
54.1892
54.1868
54.1843
54.1819
54.1794
54.177
54.1745
54.1721
54.1696
54.1671
54.1647
54.1622
54.1598
54.1573
54.1549
54.1524
54.15
54.1475
54.1451
54.1426
54.1402
54.1377
54.1353
54.1328
54.1304
54.1279
54.1255
54.123
54.1206
54.1181
54.1157
54.1133
54.1108
54.1084
54.1059
54.1035
54.101
54.0986
54.0961
54.0937
54.0913
54.0888
54.0864
54.0839
54.0815
54.0791
54.0766
54.0742
54.0717
54.0693
54.0669
54.0644
54.062
54.0595
54.0571
54.0547
54.0522
54.0498
54.0474
54.0449
54.0425
54.0401
54.0376
54.0352
54.0328
54.0303
54.0279
54.0255
54.023
54.0206
54.0182
54.0157
54.0133
54.0109
54.0084
54.006
54.0036
54.0011
53.9987
53.9963
53.9939
53.9914
53.989
53.9866
53.9842
53.9817
53.9793
53.9769
53.9744
53.972
53.9696
53.9672
53.9648
53.9623
53.9599
53.9575
53.9551
53.9526
53.9502
53.9478
53.9454
53.943
53.9405
53.9381
53.9357
53.9333
53.9309
53.9284
53.926
53.9236
53.9212
53.9188
53.9164
53.9139
53.9115
53.9091
53.9067
53.9043
53.9019
53.8994
53.897
53.8946
53.8922
53.8898
53.8874
53.885
53.8826
53.8801
53.8777
53.8753
53.8729
53.8705
53.8681
53.8657
53.8633
53.8609
53.8585
53.8561
53.8536
53.8512
53.8488
53.8464
53.844
53.8416
53.8392
53.8368
53.8344
53.832
53.8296
53.8272
53.8248
53.8224
53.82
53.8176
53.8152
53.8128
53.8104
53.808
53.8056
53.8032
53.8008
53.7984
53.796
53.7936
53.7912
53.7888
53.7864
53.784
53.7816
53.7792
53.7768
53.7744
53.772
53.7696
53.7672
53.7648
53.7624
53.76
53.7576
53.7553
53.7529
53.7505
53.7481
53.7457
53.7433
53.7409
53.7385
53.7361
53.7337
53.7313
53.729
53.7266
53.7242
53.7218
53.7194
53.717
53.7146
53.7122
53.7099
53.7075
53.7051
53.7027
53.7003
53.6979
53.6956
53.6932
53.6908
53.6884
53.686
53.6836
53.6813
53.6789
53.6765
53.6741
53.6717
53.6694
53.667
53.6646
53.6622
53.6598
53.6575
53.6551
53.6527
53.6503
53.6479
53.6456
53.6432
53.6408
53.6384
53.6361
53.6337
53.6313
53.6289
53.6266
53.6242
53.6218
53.6195
53.6171
53.6147
53.6123
53.61
53.6076
53.6052
53.6029
53.6005
53.5981
53.5957
53.5934
53.591
53.5886
53.5863
53.5839
53.5815
53.5792
53.5768
53.5744
53.5721
53.5697
53.5673
53.565
53.5626
53.5603
53.5579
53.5555
53.5532
53.5508
53.5484
53.5461
53.5437
53.5414
53.539
53.5366
53.5343
53.5319
53.5296
53.5272
53.5248
53.5225
53.5201
53.5178
53.5154
53.5131
53.5107
53.5083
53.506
53.5036
53.5013
53.4989
53.4966
53.4942
53.4919
53.4895
53.4872
53.4848
53.4825
53.4801
53.4778
53.4754
53.4731
53.4707
53.4684
53.466
53.4637
53.4613
53.459
53.4566
53.4543
53.4519
53.4496
53.4472
53.4449
53.4425
53.4402
53.4378
53.4355
53.4331
53.4308
53.4285
53.4261
53.4238
53.4214
53.4191
53.4167
53.4144
53.4121
53.4097
53.4074
53.405
53.4027
53.4004
53.398
53.3957
53.3933
53.391
53.3887
53.3863
53.384
53.3817
53.3793
53.377
53.3746
53.3723
53.37
53.3676
53.3653
53.363
53.3606
53.3583
53.356
53.3536
53.3513
53.349
53.3466
53.3443
53.342
53.3397
53.3373
53.335
53.3327
53.3303
53.328
53.3257
53.3233
53.321
53.3187
53.3164
53.314
53.3117
53.3094
53.3071
53.3047
53.3024
53.3001
53.2978
53.2954
53.2931
53.2908
53.2885
53.2861
53.2838
53.2815
53.2792
53.2769
53.2745
53.2722
53.2699
53.2676
53.2653
53.2629
53.2606
53.2583
53.256
53.2537
53.2514
53.249
53.2467
53.2444
53.2421
53.2398
53.2375
53.2351
53.2328
53.2305
53.2282
53.2259
53.2236
53.2213
53.219
53.2166
53.2143
53.212
53.2097
53.2074
53.2051
53.2028
53.2005
53.1982
53.1958
53.1935
53.1912
53.1889
53.1866
53.1843
53.182
53.1797
53.1774
53.1751
53.1728
53.1705
53.1682
53.1659
53.1636
53.1613
53.159
53.1567
53.1543
53.152
53.1497
53.1474
53.1451
53.1428
53.1405
53.1382
53.1359
53.1336
53.1313
53.129
53.1267
53.1244
53.1222
53.1199
53.1176
53.1153
53.113
53.1107
53.1084
53.1061
53.1038
53.1015
53.0992
53.0969
53.0946
53.0923
53.09
53.0877
53.0854
53.0831
53.0809
53.0786
53.0763
53.074
53.0717
53.0694
53.0671
53.0648
53.0625
53.0602
53.058
53.0557
53.0534
53.0511
53.0488
53.0465
53.0442
53.042
53.0397
53.0374
53.0351
53.0328
53.0305
53.0283
53.026
53.0237
53.0214
53.0191
53.0168
53.0146
53.0123
53.01
53.0077
53.0054
53.0032
53.0009
52.9986
52.9963
52.994
52.9918
52.9895
52.9872
52.9849
52.9827
52.9804
52.9781
52.9758
52.9736
52.9713
52.969
52.9667
52.9645
52.9622
52.9599
52.9576
52.9554
52.9531
52.9508
52.9486
52.9463
52.944
52.9417
52.9395
52.9372
52.9349
52.9327
52.9304
52.9281
52.9259
52.9236
52.9213
52.9191
52.9168
52.9145
52.9123
52.91
52.9077
52.9055
52.9032
52.9009
52.8987
52.8964
52.8942
52.8919
52.8896
52.8874
52.8851
52.8828
52.8806
52.8783
52.8761
52.8738
52.8715
52.8693
52.867
52.8648
52.8625
52.8603
52.858
52.8557
52.8535
52.8512
52.849
52.8467
52.8445
52.8422
52.8399
52.8377
52.8354
52.8332
52.8309
52.8287
52.8264
52.8242
52.8219
52.8197
52.8174
52.8152
52.8129
52.8107
52.8084
52.8062
52.8039
52.8017
52.7994
52.7972
52.7949
52.7927
52.7904
52.7882
52.7859
52.7837
52.7815
52.7792
52.777
52.7747
52.7725
52.7702
52.768
52.7657
52.7635
52.7613
52.759
52.7568
52.7545
52.7523
52.7501
52.7478
52.7456
52.7433
52.7411
52.7389
52.7366
52.7344
52.7321
52.7299
52.7277
52.7254
52.7232
52.721
52.7187
52.7165
52.7143
52.712
52.7098
52.7075
52.7053
52.7031
52.7008
52.6986
52.6964
52.6941
52.6919
52.6897
52.6875
52.6852
52.683
52.6808
52.6785
52.6763
52.6741
52.6718
52.6696
52.6674
52.6652
52.6629
52.6607
52.6585
52.6563
52.654
52.6518
52.6496
52.6474
52.6451
52.6429
52.6407
52.6385
52.6362
52.634
52.6318
52.6296
52.6273
52.6251
52.6229
52.6207
52.6185
52.6162
52.614
52.6118
52.6096
52.6074
52.6052
52.6029
52.6007
52.5985
52.5963
52.5941
52.5918
52.5896
52.5874
52.5852
52.583
52.5808
52.5786
52.5763
52.5741
52.5719
52.5697
52.5675
52.5653
52.5631
52.5609
52.5586
52.5564
52.5542
52.552
52.5498
52.5476
52.5454
52.5432
52.541
52.5388
52.5366
52.5343
52.5321
52.5299
52.5277
52.5255
52.5233
52.5211
52.5189
52.5167
52.5145
52.5123
52.5101
52.5079
52.5057
52.5035
52.5013
52.4991
52.4969
52.4947
52.4925
52.4903
52.4881
52.4859
52.4837
52.4815
52.4793
52.4771
52.4749
52.4727
52.4705
52.4683
52.4661
52.4639
52.4617
52.4595
52.4573
52.4551
52.4529
52.4507
52.4485
52.4463
52.4441
52.442
52.4398
52.4376
52.4354
52.4332
52.431
52.4288
52.4266
52.4244
52.4222
52.42
52.4179
52.4157
52.4135
52.4113
52.4091
52.4069
52.4047
52.4025
52.4004
52.3982
52.396
52.3938
52.3916
52.3894
52.3872
52.3851
52.3829
52.3807
52.3785
52.3763
52.3741
52.372
52.3698
52.3676
52.3654
52.3632
52.3611
52.3589
52.3567
52.3545
52.3523
52.3502
52.348
52.3458
52.3436
52.3414
52.3393
52.3371
52.3349
52.3327
52.3306
52.3284
52.3262
52.324
52.3219
52.3197
52.3175
52.3153
52.3132
52.311
52.3088
52.3067
52.3045
52.3023
52.3001
52.298
52.2958
52.2936
52.2915
52.2893
52.2871
52.285
52.2828
52.2806
52.2785
52.2763
52.2741
52.272
52.2698
52.2676
52.2655
52.2633
52.2611
52.259
52.2568
52.2546
52.2525
52.2503
52.2481
52.246
52.2438
52.2417
52.2395
52.2373
52.2352
52.233
52.2309
52.2287
52.2265
52.2244
52.2222
52.2201
52.2179
52.2158
52.2136
52.2114
52.2093
52.2071
52.205
52.2028
52.2007
52.1985
52.1963
52.1942
52.192
52.1899
52.1877
52.1856
52.1834
52.1813
52.1791
52.177
52.1748
52.1727
52.1705
52.1684
52.1662
52.1641
52.1619
52.1598
52.1576
52.1555
52.1533
52.1512
52.149
52.1469
52.1447
52.1426
52.1405
52.1383
52.1362
52.134
52.1319
52.1297
52.1276
52.1254
52.1233
52.1212
52.119
52.1169
52.1147
52.1126
52.1104
52.1083
52.1062
52.104
52.1019
52.0998
52.0976
52.0955
52.0933
52.0912
52.0891
52.0869
52.0848
52.0826
52.0805
52.0784
52.0762
52.0741
52.072
52.0698
52.0677
52.0656
52.0634
52.0613
52.0592
52.057
52.0549
52.0528
52.0506
52.0485
52.0464
52.0443
52.0421
52.04
52.0379
52.0357
52.0336
52.0315
52.0293
52.0272
52.0251
52.023
52.0208
52.0187
52.0166
52.0145
52.0123
52.0102
52.0081
52.006
52.0038
52.0017
51.9996
51.9975
51.9953
51.9932
51.9911
51.989
51.9869
51.9847
51.9826
51.9805
51.9784
51.9763
51.9741
51.972
51.9699
51.9678
51.9657
51.9635
51.9614
51.9593