# vtk DataFile Version 2.0
vtk output
ASCII
DATASET STRUCTURED_GRID
DIMENSIONS 50 10 30
POINTS 15000 float
0 0 0
1 0 0
2 0 0
3 0 0
4 0 0
5 0 0
6 0 0
7 0 0
8 0 0
9 0 0
10 0 0
11 0 0
12 0 0
13 0 0
14 0 0
15 0 0
16 0 0
17 0 0
18 0 0
19 0 0
20 0 0
21 0 0
22 0 0
23 0 0
24 0 0
25 0 0
26 0 0
27 0 0
28 0 0
29 0 0
30 0 0
31 0 0
32 0 0
33 0 0
34 0 0
35 0 0
36 0 0
37 0 0
38 0 0
39 0 0
40 0 0
41 0 0
42 0 0
43 0 0
44 0 0
45 0 0
46 0 0
47 0 0
48 0 0
49 0 0
0 1 0
1 1 0
2 1 0
3 1 0
4 1 0
5 1 0
6 1 0
7 1 0
8 1 0
9 1 0
10 1 0
11 1 0
12 1 0
13 1 0
14 1 0
15 1 0
16 1 0
17 1 0
18 1 0
19 1 0
20 1 0
21 1 0
22 1 0
23 1 0
24 1 0
25 1 0
26 1 0
27 1 0
28 1 0
29 1 0
30 1 0
31 1 0
32 1 0
33 1 0
34 1 0
35 1 0
36 1 0
37 1 0
38 1 0
39 1 0
40 1 0
41 1 0
42 1 0
43 1 0
44 1 0
45 1 0
46 1 0
47 1 0
48 1 0
49 1 0
0 2 0
1 2 0
2 2 0
3 2 0
4 2 0
5 2 0
6 2 0
7 2 0
8 2 0
9 2 0
10 2 0
11 2 0
12 2 0
13 2 0
14 2 0
15 2 0
16 2 0
17 2 0
18 2 0
19 2 0
20 2 0
21 2 0
22 2 0
23 2 0
24 2 0
25 2 0
26 2 0
27 2 0
28 2 0
29 2 0
30 2 0
31 2 0
32 2 0
33 2 0
34 2 0
35 2 0
36 2 0
37 2 0
38 2 0
39 2 0
40 2 0
41 2 0
42 2 0
43 2 0
44 2 0
45 2 0
46 2 0
47 2 0
48 2 0
49 2 0
0 3 0
1 3 0
2 3 0
3 3 0
4 3 0
5 3 0
6 3 0
7 3 0
8 3 0
9 3 0
10 3 0
11 3 0
12 3 0
13 3 0
14 3 0
15 3 0
16 3 0
17 3 0
18 3 0
19 3 0
20 3 0
21 3 0
22 3 0
23 3 0
24 3 0
25 3 0
26 3 0
27 3 0
28 3 0
29 3 0
30 3 0
31 3 0
32 3 0
33 3 0
34 3 0
35 3 0
36 3 0
37 3 0
38 3 0
39 3 0
40 3 0
41 3 0
42 3 0
43 3 0
44 3 0
45 3 0
46 3 0
47 3 0
48 3 0
49 3 0
0 4 0
1 4 0
2 4 0
3 4 0
4 4 0
5 4 0
6 4 0
7 4 0
8 4 0
9 4 0
10 4 0
11 4 0
12 4 0
13 4 0
14 4 0
15 4 0
16 4 0
17 4 0
18 4 0
19 4 0
20 4 0
21 4 0
22 4 0
23 4 0
24 4 0
25 4 0
26 4 0
27 4 0
28 4 0
29 4 0
30 4 0
31 4 0
32 4 0
33 4 0
34 4 0
35 4 0
36 4 0
37 4 0
38 4 0
39 4 0
40 4 0
41 4 0
42 4 0
43 4 0
44 4 0
45 4 0
46 4 0
47 4 0
48 4 0
49 4 0
0 5 0
1 5 0
2 5 0
3 5 0
4 5 0
5 5 0
6 5 0
7 5 0
8 5 0
9 5 0
10 5 0
11 5 0
12 5 0
13 5 0
14 5 0
15 5 0
16 5 0
17 5 0
18 5 0
19 5 0
20 5 0
21 5 0
22 5 0
23 5 0
24 5 0
25 5 0
26 5 0
27 5 0
28 5 0
29 5 0
30 5 0
31 5 0
32 5 0
33 5 0
34 5 0
35 5 0
36 5 0
37 5 0
38 5 0
39 5 0
40 5 0
41 5 0
42 5 0
43 5 0
44 5 0
45 5 0
46 5 0
47 5 0
48 5 0
49 5 0
0 6 0
1 6 0
2 6 0
3 6 0
4 6 0
5 6 0
6 6 0
7 6 0
8 6 0
9 6 0
10 6 0
11 6 0
12 6 0
13 6 0
14 6 0
15 6 0
16 6 0
17 6 0
18 6 0
19 6 0
20 6 0
21 6 0
22 6 0
23 6 0
24 6 0
25 6 0
26 6 0
27 6 0
28 6 0
29 6 0
30 6 0
31 6 0
32 6 0
33 6 0
34 6 0
35 6 0
36 6 0
37 6 0
38 6 0
39 6 0
40 6 0
41 6 0
42 6 0
43 6 0
44 6 0
45 6 0
46 6 0
47 6 0
48 6 0
49 6 0
0 7 0
1 7 0
2 7 0
3 7 0
4 7 0
5 7 0
6 7 0
7 7 0
8 7 0
9 7 0
10 7 0
11 7 0
12 7 0
13 7 0
14 7 0
15 7 0
16 7 0
17 7 0
18 7 0
19 7 0
20 7 0
21 7 0
22 7 0
23 7 0
24 7 0
25 7 0
26 7 0
27 7 0
28 7 0
29 7 0
30 7 0
31 7 0
32 7 0
33 7 0
34 7 0
35 7 0
36 7 0
37 7 0
38 7 0
39 7 0
40 7 0
41 7 0
42 7 0
43 7 0
44 7 0
45 7 0
46 7 0
47 7 0
48 7 0
49 7 0
0 8 0
1 8 0
2 8 0
3 8 0
4 8 0
5 8 0
6 8 0
7 8 0
8 8 0
9 8 0
10 8 0
11 8 0
12 8 0
13 8 0
14 8 0
15 8 0
16 8 0
17 8 0
18 8 0
19 8 0
20 8 0
21 8 0
22 8 0
23 8 0
24 8 0
25 8 0
26 8 0
27 8 0
28 8 0
29 8 0
30 8 0
31 8 0
32 8 0
33 8 0
34 8 0
35 8 0
36 8 0
37 8 0
38 8 0
39 8 0
40 8 0
41 8 0
42 8 0
43 8 0
44 8 0
45 8 0
46 8 0
47 8 0
48 8 0
49 8 0
0 9 0
1 9 0
2 9 0
3 9 0
4 9 0
5 9 0
6 9 0
7 9 0
8 9 0
9 9 0
10 9 0
11 9 0
12 9 0
13 9 0
14 9 0
15 9 0
16 9 0
17 9 0
18 9 0
19 9 0
20 9 0
21 9 0
22 9 0
23 9 0
24 9 0
25 9 0
26 9 0
27 9 0
28 9 0
29 9 0
30 9 0
31 9 0
32 9 0
33 9 0
34 9 0
35 9 0
36 9 0
37 9 0
38 9 0
39 9 0
40 9 0
41 9 0
42 9 0
43 9 0
44 9 0
45 9 0
46 9 0
47 9 0
48 9 0
49 9 0
0 0 1
1 0 1
2 0 1
3 0 1
4 0 1
5 0 1
6 0 1
7 0 1
8 0 1
9 0 1
10 0 1
11 0 1
12 0 1
13 0 1
14 0 1
15 0 1
16 0 1
17 0 1
18 0 1
19 0 1
20 0 1
21 0 1
22 0 1
23 0 1
24 0 1
25 0 1
26 0 1
27 0 1
28 0 1
29 0 1
30 0 1
31 0 1
32 0 1
33 0 1
34 0 1
35 0 1
36 0 1
37 0 1
38 0 1
39 0 1
40 0 1
41 0 1
42 0 1
43 0 1
44 0 1
45 0 1
46 0 1
47 0 1
48 0 1
49 0 1
0 1 1
1 1 1
2 1 1
3 1 1
4 1 1
5 1 1
6 1 1
7 1 1
8 1 1
9 1 1
10 1 1
11 1 1
12 1 1
13 1 1
14 1 1
15 1 1
16 1 1
17 1 1
18 1 1
19 1 1
20 1 1
21 1 1
22 1 1
23 1 1
24 1 1
25 1 1
26 1 1
27 1 1
28 1 1
29 1 1
30 1 1
31 1 1
32 1 1
33 1 1
34 1 1
35 1 1
36 1 1
37 1 1
38 1 1
39 1 1
40 1 1
41 1 1
42 1 1
43 1 1
44 1 1
45 1 1
46 1 1
47 1 1
48 1 1
49 1 1
0 2 1
1 2 1
2 2 1
3 2 1
4 2 1
5 2 1
6 2 1
7 2 1
8 2 1
9 2 1
10 2 1
11 2 1
12 2 1
13 2 1
14 2 1
15 2 1
16 2 1
17 2 1
18 2 1
19 2 1
20 2 1
21 2 1
22 2 1
23 2 1
24 2 1
25 2 1
26 2 1
27 2 1
28 2 1
29 2 1
30 2 1
31 2 1
32 2 1
33 2 1
34 2 1
35 2 1
36 2 1
37 2 1
38 2 1
39 2 1
40 2 1
41 2 1
42 2 1
43 2 1
44 2 1
45 2 1
46 2 1
47 2 1
48 2 1
49 2 1
0 3 1
1 3 1
2 3 1
3 3 1
4 3 1
5 3 1
6 3 1
7 3 1
8 3 1
9 3 1
10 3 1
11 3 1
12 3 1
13 3 1
14 3 1
15 3 1
16 3 1
17 3 1
18 3 1
19 3 1
20 3 1
21 3 1
22 3 1
23 3 1
24 3 1
25 3 1
26 3 1
27 3 1
28 3 1
29 3 1
30 3 1
31 3 1
32 3 1
33 3 1
34 3 1
35 3 1
36 3 1
37 3 1
38 3 1
39 3 1
40 3 1
41 3 1
42 3 1
43 3 1
44 3 1
45 3 1
46 3 1
47 3 1
48 3 1
49 3 1
0 4 1
1 4 1
2 4 1
3 4 1
4 4 1
5 4 1
6 4 1
7 4 1
8 4 1
9 4 1
10 4 1
11 4 1
12 4 1
13 4 1
14 4 1
15 4 1
16 4 1
17 4 1
18 4 1
19 4 1
20 4 1
21 4 1
22 4 1
23 4 1
24 4 1
25 4 1
26 4 1
27 4 1
28 4 1
29 4 1
30 4 1
31 4 1
32 4 1
33 4 1
34 4 1
35 4 1
36 4 1
37 4 1
38 4 1
39 4 1
40 4 1
41 4 1
42 4 1
43 4 1
44 4 1
45 4 1
46 4 1
47 4 1
48 4 1
49 4 1
0 5 1
1 5 1
2 5 1
3 5 1
4 5 1
5 5 1
6 5 1
7 5 1
8 5 1
9 5 1
10 5 1
11 5 1
12 5 1
13 5 1
14 5 1
15 5 1
16 5 1
17 5 1
18 5 1
19 5 1
20 5 1
21 5 1
22 5 1
23 5 1
24 5 1
25 5 1
26 5 1
27 5 1
28 5 1
29 5 1
30 5 1
31 5 1
32 5 1
33 5 1
34 5 1
35 5 1
36 5 1
37 5 1
38 5 1
39 5 1
40 5 1
41 5 1
42 5 1
43 5 1
44 5 1
45 5 1
46 5 1
47 5 1
48 5 1
49 5 1
0 6 1
1 6 1
2 6 1
3 6 1
4 6 1
5 6 1
6 6 1
7 6 1
8 6 1
9 6 1
10 6 1
11 6 1
12 6 1
13 6 1
14 6 1
15 6 1
16 6 1
17 6 1
18 6 1
19 6 1
20 6 1
21 6 1
22 6 1
23 6 1
24 6 1
25 6 1
26 6 1
27 6 1
28 6 1
29 6 1
30 6 1
31 6 1
32 6 1
33 6 1
34 6 1
35 6 1
36 6 1
37 6 1
38 6 1
39 6 1
40 6 1
41 6 1
42 6 1
43 6 1
44 6 1
45 6 1
46 6 1
47 6 1
48 6 1
49 6 1
0 7 1
1 7 1
2 7 1
3 7 1
4 7 1
5 7 1
6 7 1
7 7 1
8 7 1
9 7 1
10 7 1
11 7 1
12 7 1
13 7 1
14 7 1
15 7 1
16 7 1
17 7 1
18 7 1
19 7 1
20 7 1
21 7 1
22 7 1
23 7 1
24 7 1
25 7 1
26 7 1
27 7 1
28 7 1
29 7 1
30 7 1
31 7 1
32 7 1
33 7 1
34 7 1
35 7 1
36 7 1
37 7 1
38 7 1
39 7 1
40 7 1
41 7 1
42 7 1
43 7 1
44 7 1
45 7 1
46 7 1
47 7 1
48 7 1
49 7 1
0 8 1
1 8 1
2 8 1
3 8 1
4 8 1
5 8 1
6 8 1
7 8 1
8 8 1
9 8 1
10 8 1
11 8 1
12 8 1
13 8 1
14 8 1
15 8 1
16 8 1
17 8 1
18 8 1
19 8 1
20 8 1
21 8 1
22 8 1
23 8 1
24 8 1
25 8 1
26 8 1
27 8 1
28 8 1
29 8 1
30 8 1
31 8 1
32 8 1
33 8 1
34 8 1
35 8 1
36 8 1
37 8 1
38 8 1
39 8 1
40 8 1
41 8 1
42 8 1
43 8 1
44 8 1
45 8 1
46 8 1
47 8 1
48 8 1
49 8 1
0 9 1
1 9 1
2 9 1
3 9 1
4 9 1
5 9 1
6 9 1
7 9 1
8 9 1
9 9 1
10 9 1
11 9 1
12 9 1
13 9 1
14 9 1
15 9 1
16 9 1
17 9 1
18 9 1
19 9 1
20 9 1
21 9 1
22 9 1
23 9 1
24 9 1
25 9 1
26 9 1
27 9 1
28 9 1
29 9 1
30 9 1
31 9 1
32 9 1
33 9 1
34 9 1
35 9 1
36 9 1
37 9 1
38 9 1
39 9 1
40 9 1
41 9 1
42 9 1
43 9 1
44 9 1
45 9 1
46 9 1
47 9 1
48 9 1
49 9 1
0 0 2
1 0 2
2 0 2
3 0 2
4 0 2
5 0 2
6 0 2
7 0 2
8 0 2
9 0 2
10 0 2
11 0 2
12 0 2
13 0 2
14 0 2
15 0 2
16 0 2
17 0 2
18 0 2
19 0 2
20 0 2
21 0 2
22 0 2
23 0 2
24 0 2
25 0 2
26 0 2
27 0 2
28 0 2
29 0 2
30 0 2
31 0 2
32 0 2
33 0 2
34 0 2
35 0 2
36 0 2
37 0 2
38 0 2
39 0 2
40 0 2
41 0 2
42 0 2
43 0 2
44 0 2
45 0 2
46 0 2
47 0 2
48 0 2
49 0 2
0 1 2
1 1 2
2 1 2
3 1 2
4 1 2
5 1 2
6 1 2
7 1 2
8 1 2
9 1 2
10 1 2
11 1 2
12 1 2
13 1 2
14 1 2
15 1 2
16 1 2
17 1 2
18 1 2
19 1 2
20 1 2
21 1 2
22 1 2
23 1 2
24 1 2
25 1 2
26 1 2
27 1 2
28 1 2
29 1 2
30 1 2
31 1 2
32 1 2
33 1 2
34 1 2
35 1 2
36 1 2
37 1 2
38 1 2
39 1 2
40 1 2
41 1 2
42 1 2
43 1 2
44 1 2
45 1 2
46 1 2
47 1 2
48 1 2
49 1 2
0 2 2
1 2 2
2 2 2
3 2 2
4 2 2
5 2 2
6 2 2
7 2 2
8 2 2
9 2 2
10 2 2
11 2 2
12 2 2
13 2 2
14 2 2
15 2 2
16 2 2
17 2 2
18 2 2
19 2 2
20 2 2
21 2 2
22 2 2
23 2 2
24 2 2
25 2 2
26 2 2
27 2 2
28 2 2
29 2 2
30 2 2
31 2 2
32 2 2
33 2 2
34 2 2
35 2 2
36 2 2
37 2 2
38 2 2
39 2 2
40 2 2
41 2 2
42 2 2
43 2 2
44 2 2
45 2 2
46 2 2
47 2 2
48 2 2
49 2 2
0 3 2
1 3 2
2 3 2
3 3 2
4 3 2
5 3 2
6 3 2
7 3 2
8 3 2
9 3 2
10 3 2
11 3 2
12 3 2
13 3 2
14 3 2
15 3 2
16 3 2
17 3 2
18 3 2
19 3 2
20 3 2
21 3 2
22 3 2
23 3 2
24 3 2
25 3 2
26 3 2
27 3 2
28 3 2
29 3 2
30 3 2
31 3 2
32 3 2
33 3 2
34 3 2
35 3 2
36 3 2
37 3 2
38 3 2
39 3 2
40 3 2
41 3 2
42 3 2
43 3 2
44 3 2
45 3 2
46 3 2
47 3 2
48 3 2
49 3 2
0 4 2
1 4 2
2 4 2
3 4 2
4 4 2
5 4 2
6 4 2
7 4 2
8 4 2
9 4 2
10 4 2
11 4 2
12 4 2
13 4 2
14 4 2
15 4 2
16 4 2
17 4 2
18 4 2
19 4 2
20 4 2
21 4 2
22 4 2
23 4 2
24 4 2
25 4 2
26 4 2
27 4 2
28 4 2
29 4 2
30 4 2
31 4 2
32 4 2
33 4 2
34 4 2
35 4 2
36 4 2
37 4 2
38 4 2
39 4 2
40 4 2
41 4 2
42 4 2
43 4 2
44 4 2
45 4 2
46 4 2
47 4 2
48 4 2
49 4 2
0 5 2
1 5 2
2 5 2
3 5 2
4 5 2
5 5 2
6 5 2
7 5 2
8 5 2
9 5 2
10 5 2
11 5 2
12 5 2
13 5 2
14 5 2
15 5 2
16 5 2
17 5 2
18 5 2
19 5 2
20 5 2
21 5 2
22 5 2
23 5 2
24 5 2
25 5 2
26 5 2
27 5 2
28 5 2
29 5 2
30 5 2
31 5 2
32 5 2
33 5 2
34 5 2
35 5 2
36 5 2
37 5 2
38 5 2
39 5 2
40 5 2
41 5 2
42 5 2
43 5 2
44 5 2
45 5 2
46 5 2
47 5 2
48 5 2
49 5 2
0 6 2
1 6 2
2 6 2
3 6 2
4 6 2
5 6 2
6 6 2
7 6 2
8 6 2
9 6 2
10 6 2
11 6 2
12 6 2
13 6 2
14 6 2
15 6 2
16 6 2
17 6 2
18 6 2
19 6 2
20 6 2
21 6 2
22 6 2
23 6 2
24 6 2
25 6 2
26 6 2
27 6 2
28 6 2
29 6 2
30 6 2
31 6 2
32 6 2
33 6 2
34 6 2
35 6 2
36 6 2
37 6 2
38 6 2
39 6 2
40 6 2
41 6 2
42 6 2
43 6 2
44 6 2
45 6 2
46 6 2
47 6 2
48 6 2
49 6 2
0 7 2
1 7 2
2 7 2
3 7 2
4 7 2
5 7 2
6 7 2
7 7 2
8 7 2
9 7 2
10 7 2
11 7 2
12 7 2
13 7 2
14 7 2
15 7 2
16 7 2
17 7 2
18 7 2
19 7 2
20 7 2
21 7 2
22 7 2
23 7 2
24 7 2
25 7 2
26 7 2
27 7 2
28 7 2
29 7 2
30 7 2
31 7 2
32 7 2
33 7 2
34 7 2
35 7 2
36 7 2
37 7 2
38 7 2
39 7 2
40 7 2
41 7 2
42 7 2
43 7 2
44 7 2
45 7 2
46 7 2
47 7 2
48 7 2
49 7 2
0 8 2
1 8 2
2 8 2
3 8 2
4 8 2
5 8 2
6 8 2
7 8 2
8 8 2
9 8 2
10 8 2
11 8 2
12 8 2
13 8 2
14 8 2
15 8 2
16 8 2
17 8 2
18 8 2
19 8 2
20 8 2
21 8 2
22 8 2
23 8 2
24 8 2
25 8 2
26 8 2
27 8 2
28 8 2
29 8 2
30 8 2
31 8 2
32 8 2
33 8 2
34 8 2
35 8 2
36 8 2
37 8 2
38 8 2
39 8 2
40 8 2
41 8 2
42 8 2
43 8 2
44 8 2
45 8 2
46 8 2
47 8 2
48 8 2
49 8 2
0 9 2
1 9 2
2 9 2
3 9 2
4 9 2
[...]
POINT_DATA 15000
SCALARS sol254 float
LOOKUP_TABLE default
58.3166
58.3136
58.3105
58.3075
58.3044
58.3014
58.2983
58.2953
58.2923
58.2892
58.2862
58.2831
58.2801
58.277
58.274
58.2709
58.2679
58.2649
58.2618
58.2588
58.2557
58.2527
58.2497
58.2466
58.2436
58.2405
58.2375
58.2345
58.2314
58.2284
58.2253
58.2223
58.2193
58.2162
58.2132
58.2102
58.2071
58.2041
58.2011
58.198
58.195
58.192
58.1889
58.1859
58.1829
58.1798
58.1768
58.1738
58.1707
58.1677
58.1647
58.1617
58.1586
58.1556
58.1526
58.1496
58.1465
58.1435
58.1405
58.1374
58.1344
58.1314
58.1284
58.1254
58.1223
58.1193
58.1163
58.1133
58.1102
58.1072
58.1042
58.1012
58.0982
58.0951
58.0921
58.0891
58.0861
58.0831
58.08
58.077
58.074
58.071
58.068
58.065
58.0619
58.0589
58.0559
58.0529
58.0499
58.0469
58.0439
58.0409
58.0378
58.0348
58.0318
58.0288
58.0258
58.0228
58.0198
58.0168
58.0138
58.0107
58.0077
58.0047
58.0017
57.9987
57.9957
57.9927
57.9897
57.9867
57.9837
57.9807
57.9777
57.9747
57.9717
57.9687
57.9657
57.9627
57.9597
57.9567
57.9537
57.9507
57.9477
57.9447
57.9417
57.9387
57.9357
57.9327
57.9297
57.9267
57.9237
57.9207
57.9177
57.9147
57.9117
57.9087
57.9057
57.9027
57.8997
57.8967
57.8937
57.8907
57.8877
57.8848
57.8818
57.8788
57.8758
57.8728
57.8698
57.8668
57.8638
57.8608
57.8579
57.8549
57.8519
57.8489
57.8459
57.8429
57.8399
57.8369
57.834
57.831
57.828
57.825
57.822
57.819
57.8161
57.8131
57.8101
57.8071
57.8041
57.8012
57.7982
57.7952
57.7922
57.7892
57.7863
57.7833
57.7803
57.7773
57.7743
57.7714
57.7684
57.7654
57.7624
57.7595
57.7565
57.7535
57.7506
57.7476
57.7446
57.7416
57.7387
57.7357
57.7327
57.7297
57.7268
57.7238
57.7208
57.7179
57.7149
57.7119
57.709
57.706
57.703
57.7001
57.6971
57.6941
57.6912
57.6882
57.6852
57.6823
57.6793
57.6763
57.6734
57.6704
57.6675
57.6645
57.6615
57.6586
57.6556
57.6526
57.6497
57.6467
57.6438
57.6408
57.6378
57.6349
57.6319
57.629
57.626
57.6231
57.6201
57.6172
57.6142
57.6112
57.6083
57.6053
57.6024
57.5994
57.5965
57.5935
57.5906
57.5876
57.5847
57.5817
57.5788
57.5758
57.5729
57.5699
57.567
57.564
57.5611
57.5581
57.5552
57.5522
57.5493
57.5463
57.5434
57.5404
57.5375
57.5346
57.5316
57.5287
57.5257
57.5228
57.5198
57.5169
57.514
57.511
57.5081
57.5051
57.5022
57.4993
57.4963
57.4934
57.4904
57.4875
57.4846
57.4816
57.4787
57.4757
57.4728
57.4699
57.4669
57.464
57.4611
57.4581
57.4552
57.4523
57.4493
57.4464
57.4435
57.4405
57.4376
57.4347
57.4317
57.4288
57.4259
57.423
57.42
57.4171
57.4142
57.4112
57.4083
57.4054
57.4025
57.3995
57.3966
57.3937
57.3908
57.3878
57.3849
57.382
57.3791
57.3761
57.3732
57.3703
57.3674
57.3645
57.3615
57.3586
57.3557
57.3528
57.3499
57.3469
57.344
57.3411
57.3382
57.3353
57.3323
57.3294
57.3265
57.3236
57.3207
57.3178
57.3148
57.3119
57.309
57.3061
57.3032
57.3003
57.2974
57.2945
57.2915
57.2886
57.2857
57.2828
57.2799
57.277
57.2741
57.2712
57.2683
57.2654
57.2624
57.2595
57.2566
57.2537
57.2508
57.2479
57.245
57.2421
57.2392
57.2363
57.2334
57.2305
57.2276
57.2247
57.2218
57.2189
57.216
57.2131
57.2102
57.2073
57.2044
57.2015
57.1986
57.1957
57.1928
57.1899
57.187
57.1841
57.1812
57.1783
57.1754
57.1725
57.1696
57.1667
57.1638
57.1609
57.158
57.1551
57.1522
57.1494
57.1465
57.1436
57.1407
57.1378
57.1349
57.132
57.1291
57.1262
57.1233
57.1205
57.1176
57.1147
57.1118
57.1089
57.106
57.1031
57.1002
57.0974
57.0945
57.0916
57.0887
57.0858
57.0829
57.0801
57.0772
57.0743
57.0714
57.0685
57.0656
57.0628
57.0599
57.057
57.0541
57.0512
57.0484
57.0455
57.0426
57.0397
57.0369
57.034
57.0311
57.0282
57.0254
57.0225
57.0196
57.0167
57.0139
57.011
57.0081
57.0052
57.0024
56.9995
56.9966
56.9937
56.9909
56.988
56.9851
56.9823
56.9794
56.9765
56.9737
56.9708
56.9679
56.9651
56.9622
56.9593
56.9565
56.9536
56.9507
56.9479
56.945
56.9421
56.9393
56.9364
56.9335
56.9307
56.9278
56.925
56.9221
56.9192
56.9164
56.9135
56.9107
56.9078
56.9049
56.9021
56.8992
56.8964
56.8935
56.8906
56.8878
56.8849
56.8821
56.8792
56.8764
56.8735
56.8707
56.8678
56.8649
56.8621
56.8592
56.8564
56.8535
56.8507
56.8478
56.845
56.8421
56.8393
56.8364
56.8336
56.8307
56.8279
56.825
56.8222
56.8193
56.8165
56.8136
56.8108
56.808
56.8051
56.8023
56.7994
56.7966
56.7937
56.7909
56.788
56.7852
56.7824
56.7795
56.7767
56.7738
56.771
56.7682
56.7653
56.7625
56.7596
56.7568
56.754
56.7511
56.7483
56.7454
56.7426
56.7398
56.7369
56.7341
56.7313
56.7284
56.7256
56.7228
56.7199
56.7171
56.7143
56.7114
56.7086
56.7058
56.7029
56.7001
56.6973
56.6944
56.6916
56.6888
56.686
56.6831
56.6803
56.6775
56.6746
56.6718
56.669
56.6662
56.6633
56.6605
56.6577
56.6549
56.652
56.6492
56.6464
56.6436
56.6407
56.6379
56.6351
56.6323
56.6295
56.6266
56.6238
56.621
56.6182
56.6153
56.6125
56.6097
56.6069
56.6041
56.6013
56.5984
56.5956
56.5928
56.59
56.5872
56.5844
56.5815
56.5787
56.5759
56.5731
56.5703
56.5675
56.5647
56.5619
56.559
56.5562
56.5534
56.5506
56.5478
56.545
56.5422
56.5394
56.5366
56.5338
56.5309
56.5281
56.5253
56.5225
56.5197
56.5169
56.5141
56.5113
56.5085
56.5057
56.5029
56.5001
56.4973
56.4945
56.4917
56.4889
56.4861
56.4833
56.4805
56.4777
56.4749
56.4721
56.4693
56.4665
56.4637
56.4609
56.4581
56.4553
56.4525
56.4497
56.4469
56.4441
56.4413
56.4385
56.4357
56.4329
56.4301
56.4273
56.4245
56.4217
56.4189
56.4162
56.4134
56.4106
56.4078
56.405
56.4022
56.3994
56.3966
56.3938
56.391
56.3883
56.3855
56.3827
56.3799
56.3771
56.3743
56.3715
56.3688
56.366
56.3632
56.3604
56.3576
56.3548
56.352
56.3493
56.3465
56.3437
56.3409
56.3381
56.3354
56.3326
56.3298
56.327
56.3242
56.3215
56.3187
56.3159
56.3131
56.3103
56.3076
56.3048
56.302
56.2992
56.2965
56.2937
56.2909
56.2881
56.2854
56.2826
56.2798
56.277
56.2743
56.2715
56.2687
56.266
56.2632
56.2604
56.2576
56.2549
56.2521
56.2493
56.2466
56.2438
56.241
56.2383
56.2355
56.2327
56.23
56.2272
56.2244
56.2217
56.2189
56.2161
56.2134
56.2106
56.2079
56.2051
56.2023
56.1996
56.1968
56.194
56.1913
56.1885
56.1858
56.183
56.1802
56.1775
56.1747
56.172
56.1692
56.1664
56.1637
56.1609
56.1582
56.1554
56.1527
56.1499
56.1472
56.1444
56.1416
56.1389
56.1361
56.1334
56.1306
56.1279
56.1251
56.1224
56.1196
56.1169
56.1141
56.1114
56.1086
56.1059
56.1031
56.1004
56.0976
56.0949
56.0921
56.0894
56.0866
56.0839
56.0812
56.0784
56.0757
56.0729
56.0702
56.0674
56.0647
56.0619
56.0592
56.0565
56.0537
56.051
56.0482
56.0455
56.0428
56.04
56.0373
56.0345
56.0318
56.0291
56.0263
56.0236
56.0209
56.0181
56.0154
56.0126
56.0099
56.0072
56.0044
56.0017
55.999
55.9962
55.9935
55.9908
55.988
55.9853
55.9826
55.9798
55.9771
55.9744
55.9716
55.9689
55.9662
55.9635
55.9607
55.958
55.9553
55.9525
55.9498
55.9471
55.9444
55.9416
55.9389
55.9362
55.9335
55.9307
55.928
55.9253
55.9226
55.9198
55.9171
55.9144
55.9117
55.909
55.9062
55.9035
55.9008
55.8981
55.8953
55.8926
55.8899
55.8872
55.8845
55.8818
55.879
55.8763
55.8736
55.8709
55.8682
55.8655
55.8627
55.86
55.8573
55.8546
55.8519
55.8492
55.8465
55.8437
55.841
55.8383
55.8356
55.8329
55.8302
55.8275
55.8248
55.8221
55.8194
55.8166
55.8139
55.8112
55.8085
55.8058
55.8031
55.8004
55.7977
55.795
55.7923
55.7896
55.7869
55.7842
55.7815
55.7788
55.7761
55.7734
55.7707
55.7679
55.7652
55.7625
55.7598
55.7571
55.7544
55.7517
55.749
55.7463
55.7436
55.741
55.7383
55.7356
55.7329
55.7302
55.7275
55.7248
55.7221
55.7194
55.7167
55.714
55.7113
55.7086
55.7059
55.7032
55.7005
55.6978
55.6951
55.6924
55.6898
55.6871
55.6844
55.6817
55.679
55.6763
55.6736
55.6709
55.6682
55.6656
55.6629
55.6602
55.6575
55.6548
55.6521
55.6494
55.6468
55.6441
55.6414
55.6387
55.636
55.6333
55.6307
55.628
55.6253
55.6226
55.6199
55.6172
55.6146
55.6119
55.6092
55.6065
55.6038
55.6012
55.5985
55.5958
55.5931
55.5905
55.5878
55.5851
55.5824
55.5798
55.5771
55.5744
55.5717
55.5691
55.5664
55.5637
55.561
55.5584
55.5557
55.553
55.5503
55.5477
55.545
55.5423
55.5397
55.537
55.5343
55.5317
55.529
55.5263
55.5237
55.521
55.5183
55.5157
55.513
55.5103
55.5077
55.505
55.5023
55.4997
55.497
55.4943
55.4917
55.489
55.4863
55.4837
55.481
55.4784
55.4757
55.473
55.4704
55.4677
55.4651
55.4624
55.4597
55.4571
55.4544
55.4518
55.4491
55.4465
55.4438
55.4411
55.4385
55.4358
55.4332
55.4305
55.4279
55.4252
55.4226
55.4199
55.4173
55.4146
55.412
55.4093
55.4066
55.404
55.4013
55.3987
55.396
55.3934
55.3908
55.3881
55.3855
55.3828
55.3802
55.3775
55.3749
55.3722
55.3696
55.3669
55.3643
55.3616
55.359
55.3563
55.3537
55.3511
55.3484
55.3458
55.3431
55.3405
55.3379
55.3352
55.3326
55.3299
55.3273
55.3247
55.322
55.3194
55.3167
55.3141
55.3115
55.3088
55.3062
55.3035
55.3009
55.2983
55.2956
55.293
55.2904
55.2877
55.2851
55.2825
55.2798
55.2772
55.2746
55.2719
55.2693
55.2667
55.264
55.2614
55.2588
55.2562
55.2535
55.2509
55.2483
55.2456
55.243
55.2404
55.2378
55.2351
55.2325
55.2299
55.2273
55.2246
55.222
55.2194
55.2168
55.2141
55.2115
55.2089
55.2063
55.2036
55.201
55.1984
55.1958
55.1932
55.1905
55.1879
55.1853
55.1827
55.1801
55.1774
55.1748
55.1722
55.1696
55.167
55.1643
55.1617
55.1591
55.1565
55.1539
55.1513
55.1487
55.146
55.1434
55.1408
55.1382
55.1356
55.133
55.1304
55.1278
55.1251
55.1225
55.1199
55.1173
55.1147
55.1121
55.1095
55.1069
55.1043
55.1017
55.099
55.0964
55.0938
55.0912
55.0886
55.086
55.0834
55.0808
55.0782
55.0756
55.073
55.0704
55.0678
55.0652
55.0626
55.06
55.0574
55.0548
55.0522
55.0496
55.047
55.0444
55.0418
55.0392
55.0366
55.034
55.0314
55.0288
55.0262
55.0236
55.021
55.0184
55.0158
55.0132
55.0106
55.008
55.0054
55.0028
55.0002
54.9976
54.9951
54.9925
54.9899
54.9873
54.9847
54.9821
54.9795
54.9769
54.9743
54.9717
54.9691
54.9666
54.964
54.9614
54.9588
54.9562
54.9536
54.951
54.9484
54.9459
54.9433
54.9407
54.9381
54.9355
54.9329
54.9304
54.9278
54.9252
54.9226
54.92
54.9174
54.9149
54.9123
54.9097
54.9071
54.9045
54.902
54.8994
54.8968
54.8942
54.8916
54.8891
54.8865
54.8839
54.8813
54.8788
54.8762
54.8736
54.871
54.8685
54.8659
54.8633
54.8607
54.8582
54.8556
54.853
54.8505
54.8479
54.8453
54.8427
54.8402
54.8376
54.835
54.8325
54.8299
54.8273
54.8248
54.8222
54.8196
54.8171
54.8145
54.8119
54.8094
54.8068
54.8042
54.8017
54.7991
54.7965
54.794
54.7914
54.7888
54.7863
54.7837
54.7812
54.7786
54.776
54.7735
54.7709
54.7683
54.7658
54.7632
54.7607
54.7581
54.7556
54.753
54.7504
54.7479
54.7453
54.7428
54.7402
54.7377
54.7351
54.7325
54.73
54.7274
54.7249
54.7223
54.7198
54.7172
54.7147
54.7121
54.7096
54.707
54.7045
54.7019
54.6994
54.6968
54.6943
54.6917
54.6892
54.6866
54.6841
54.6815
54.679
54.6764
54.6739
54.6713
54.6688
54.6662
54.6637
54.6611
54.6586
54.6561
54.6535
54.651
54.6484
54.6459
54.6433
54.6408
54.6383
54.6357
54.6332
54.6306
54.6281
54.6256
54.623
54.6205
54.6179
54.6154
54.6129
54.6103
54.6078
54.6053
54.6027
54.6002
54.5976
54.5951
54.5926
54.59
54.5875
54.585
54.5824
54.5799
54.5774
54.5748
54.5723
54.5698
54.5673
54.5647
54.5622
54.5597
54.5571
54.5546
54.5521
54.5495
54.547
54.5445
54.542
54.5394
54.5369
54.5344
54.5319
54.5293
54.5268
54.5243
54.5218
54.5192
54.5167
54.5142
54.5117
54.5091
54.5066
54.5041
54.5016
54.499
54.4965
54.494
54.4915
54.489
54.4864
54.4839
54.4814
54.4789
54.4764
54.4739
54.4713
54.4688
54.4663
54.4638
54.4613
54.4588
54.4562
54.4537
54.4512
54.4487
54.4462
54.4437
54.4412
54.4386
54.4361
54.4336
54.4311
54.4286
54.4261
54.4236
54.4211
54.4186
54.416
54.4135
54.411
54.4085
54.406
54.4035
54.401
54.3985
54.396
54.3935
54.391
54.3885
54.386
54.3835
54.381
54.3785
54.3759
54.3734
54.3709
54.3684
54.3659
54.3634
54.3609
54.3584
54.3559
54.3534
54.3509
54.3484
54.3459
54.3434
54.3409
54.3384
54.3359
54.3334
54.3309
54.3285
54.326
54.3235
54.321
54.3185
54.316
54.3135
54.311
54.3085
54.306
54.3035
54.301
54.2985
54.296
54.2935
54.291
54.2886
54.2861
54.2836
54.2811
54.2786
54.2761
54.2736
54.2711
54.2686
54.2662
54.2637
54.2612
54.2587
54.2562
54.2537
54.2512
54.2488
54.2463
54.2438
54.2413
54.2388
54.2363
54.2338
54.2314
54.2289
54.2264
54.2239
54.2214
54.219
54.2165
54.214
54.2115
54.209
54.2066
54.2041
54.2016
54.1991
54.1967
54.1942
54.1917
54.1892
54.1867
54.1843
54.1818
54.1793
54.1768
54.1744
54.1719
54.1694
54.1669
54.1645
54.162
54.1595
54.1571
54.1546
54.1521
54.1496
54.1472
54.1447
54.1422
54.1398
54.1373
54.1348
54.1324
54.1299
54.1274
54.125
54.1225
54.12
54.1176
54.1151
54.1126
54.1102
54.1077
54.1052
54.1028
54.1003
54.0979
54.0954
54.0929
54.0905
54.088
54.0855
54.0831
54.0806
54.0782
54.0757
54.0732
54.0708
54.0683
54.0659
54.0634
54.061
54.0585
54.056
54.0536
54.0511
54.0487
54.0462
54.0438
54.0413
54.0388
54.0364
54.0339
54.0315
54.029
54.0266
54.0241
54.0217
54.0192
54.0168
54.0143
54.0119
54.0094
54.007
54.0045
54.0021
53.9996
53.9972
53.9947
53.9923
53.9898
53.9874
53.9849
53.9825
53.9801
53.9776
53.9752
53.9727
53.9703
53.9678
53.9654
53.9629
53.9605
53.9581
53.9556
53.9532
53.9507
53.9483
53.9459
53.9434
53.941
53.9385
53.9361
53.9337
53.9312
53.9288
53.9263
53.9239
53.9215
53.919
53.9166
53.9142
53.9117
53.9093
53.9069
53.9044
53.902
53.8996
53.8971
53.8947
53.8923
53.8898
53.8874
53.885
53.8825
53.8801
53.8777
53.8752
53.8728
53.8704
53.8679
53.8655
53.8631
53.8607
53.8582
53.8558
53.8534
53.8509
53.8485
53.8461
53.8437
53.8412
53.8388
53.8364
53.834
53.8315
53.8291
53.8267
53.8243
53.8219
53.8194
53.817
53.8146
53.8122
53.8098
53.8073
53.8049
53.8025
53.8001
53.7977
53.7952
53.7928
53.7904
53.788
53.7856
53.7831
53.7807
53.7783
53.7759
53.7735
53.7711
53.7687
53.7662
53.7638
53.7614
53.759
53.7566
53.7542
53.7518
53.7494
53.7469
53.7445
53.7421
53.7397
53.7373
53.7349
53.7325
53.7301
53.7277
53.7253
53.7229
53.7204
53.718
53.7156
53.7132
53.7108
53.7084
53.706
53.7036
53.7012
53.6988
53.6964
53.694
53.6916
53.6892
53.6868
53.6844
53.682
53.6796
53.6772
53.6748
53.6724
53.67
53.6676
53.6652
53.6628
53.6604
53.658
53.6556
53.6532
53.6508
53.6484
53.646
53.6436
53.6412
53.6388
53.6364
53.634
53.6316
53.6292
53.6268
53.6244
53.622
53.6197
53.6173
53.6149
53.6125
53.6101
53.6077
53.6053
53.6029
53.6005
53.5981
53.5958
53.5934
53.591
53.5886
53.5862
53.5838
53.5814
53.579
53.5767
53.5743
53.5719
53.5695
53.5671
53.5647
53.5623
53.56
53.5576
53.5552
53.5528
53.5504
53.5481
53.5457
53.5433
53.5409
53.5385
53.5361
53.5338
53.5314
53.529
53.5266
53.5243
53.5219
53.5195
53.5171
53.5147
53.5124
53.51
53.5076
53.5052
53.5029
53.5005
53.4981
53.4957
53.4934
53.491
53.4886
53.4863
53.4839
53.4815
53.4791
53.4768
53.4744
53.472
53.4697
53.4673
53.4649
53.4625
53.4602
53.4578
53.4554
53.4531
53.4507
53.4483
53.446
53.4436
53.4412
53.4389
53.4365
53.4341
53.4318
53.4294
53.4271
53.4247
53.4223
53.42
53.4176
53.4152
53.4129
53.4105
53.4082
53.4058
53.4034
53.4011
53.3987
53.3964
53.394
53.3916
53.3893
53.3869
53.3846
53.3822
53.3799
53.3775
53.3751
53.3728
53.3704
53.3681
53.3657
53.3634
53.361
53.3587
53.3563
53.354
53.3516
53.3493
53.3469
53.3446
53.3422
53.3398
53.3375
53.3351
53.3328
53.3305
53.3281
53.3258
53.3234
53.3211
53.3187
53.3164
53.314
53.3117
53.3093
53.307
53.3046
53.3023
53.2999
53.2976
53.2953
53.2929
53.2906
53.2882
53.2859
53.2835
53.2812
53.2789
53.2765
53.2742
53.2718
53.2695
53.2672
53.2648
53.2625
53.2601
53.2578
53.2555
53.2531
53.2508
53.2485
53.2461
53.2438
53.2414
53.2391
53.2368
53.2344
53.2321
53.2298
53.2274
53.2251
53.2228
53.2204
53.2181
53.2158
53.2134
53.2111
53.2088
53.2064
53.2041
53.2018
53.1995
53.1971
53.1948
53.1925
53.1901
53.1878
53.1855
53.1832
53.1808
53.1785
53.1762
53.1739
53.1715
53.1692
53.1669
53.1646
53.1622
53.1599
53.1576
53.1553
53.1529
53.1506
53.1483
53.146
53.1437
53.1413
53.139
53.1367
53.1344
53.1321
53.1297
53.1274
53.1251
53.1228
53.1205
53.1182
53.1158
53.1135
53.1112
53.1089
53.1066
53.1043
53.1019
53.0996
53.0973
53.095
53.0927
53.0904
53.0881
53.0857
53.0834
53.0811
53.0788
53.0765
53.0742
53.0719
53.0696
53.0673
53.065
53.0626
53.0603
53.058
53.0557
53.0534
53.0511
53.0488
53.0465
53.0442
53.0419
53.0396
53.0373
53.035
53.0327
53.0304
53.0281
53.0258
53.0234
53.0211
53.0188
53.0165
53.0142
53.0119
53.0096
53.0073
53.005
53.0027
53.0004
52.9981
52.9958
52.9935
52.9912
52.9889
52.9867
52.9844
52.9821
52.9798
52.9775
52.9752
52.9729
52.9706
52.9683
52.966
52.9637
52.9614
52.9591
52.9568
52.9545
52.9522
52.9499
52.9477
52.9454
52.9431
52.9408
52.9385
52.9362
52.9339
52.9316
52.9293
52.927
52.9248
52.9225
52.9202
52.9179
52.9156
52.9133
52.911
52.9088
52.9065
52.9042
52.9019
52.8996
52.8973
52.895
52.8928
52.8905
52.8882
52.8859
52.8836
52.8814
52.8791
52.8768
52.8745
52.8722
52.87
52.8677
52.8654
52.8631
52.8608
52.8586
52.8563
52.854
52.8517
52.8495
52.8472
52.8449
52.8426
52.8404
52.8381
52.8358
52.8335
52.8313
52.829
52.8267
52.8244
52.8222
52.8199
52.8176
52.8154
52.8131
52.8108
52.8085
52.8063
52.804
52.8017
52.7995
52.7972
52.7949
52.7927
52.7904
52.7881
52.7859
52.7836
52.7813
52.7791
52.7768
52.7745
52.7723
52.77
52.7677
52.7655
52.7632
52.7609
52.7587
52.7564
52.7542
52.7519
52.7496
52.7474
52.7451
52.7429
52.7406
52.7383
52.7361
52.7338
52.7316
52.7293
52.727
52.7248
52.7225
52.7203
52.718
52.7158
52.7135
52.7113
52.709
52.7067
52.7045
52.7022
52.7
52.6977
52.6955
52.6932
52.691
52.6887
52.6865
52.6842
52.682
52.6797
52.6775
52.6752
52.673
52.6707
52.6685
52.6662
52.664
52.6617
52.6595
52.6572
52.655
52.6527
52.6505
52.6483
52.646
52.6438
52.6415
52.6393
52.637
52.6348
52.6325
52.6303
52.6281
52.6258
52.6236
52.6213
52.6191
52.6169
52.6146
52.6124
52.6101
52.6079
52.6057
52.6034
52.6012
52.5989
52.5967
52.5945
52.5922
52.59
52.5878
52.5855
52.5833
52.581
52.5788
52.5766
52.5743
52.5721
52.5699
52.5676
52.5654
52.5632
52.5609
52.5587
52.5565
52.5543
52.552
52.5498
52.5476
52.5453
52.5431
52.5409
52.5386
52.5364
52.5342
52.532
52.5297
52.5275
52.5253
52.5231
52.5208
52.5186
52.5164
52.5142
52.5119
52.5097
52.5075
52.5053
52.503
52.5008
52.4986
52.4964
52.4941
52.4919
52.4897
52.4875
52.4853
52.483
52.4808
52.4786
52.4764
52.4742
52.4719
52.4697
52.4675
52.4653
52.4631
52.4609
52.4586
52.4564
52.4542
52.452
52.4498
52.4476
52.4454
52.4431
52.4409
52.4387
52.4365
52.4343
52.4321
52.4299
52.4277
52.4254
52.4232
52.421
52.4188
52.4166
52.4144
52.4122
52.41
52.4078
52.4056
52.4034
52.4011
52.3989
52.3967
52.3945
52.3923
52.3901
52.3879
52.3857
52.3835
52.3813
52.3791
52.3769
52.3747
52.3725
52.3703
52.3681
52.3659
52.3637
52.3615
52.3593
52.3571
52.3549
52.3527
52.3505
52.3483
52.3461
52.3439
52.3417
52.3395
52.3373
52.3351
52.3329
52.3307
52.3285
52.3263
52.3241
52.3219
52.3197
52.3175
52.3153
52.3131
52.3109
52.3087
52.3066
52.3044
52.3022
52.3
52.2978
52.2956
52.2934
52.2912
52.289
52.2868
52.2846
52.2825
52.2803
52.2781
52.2759
52.2737
52.2715
52.2693
52.2671
52.265
52.2628
52.2606
52.2584
52.2562
52.254
52.2519
52.2497
52.2475
52.2453
52.2431
52.2409
52.2388
52.2366
52.2344
52.2322
52.23
52.2279
52.2257
52.2235
52.2213
52.2191
52.217
52.2148
52.2126
52.2104
52.2082
52.2061
52.2039
52.2017
52.1995
52.1974
52.1952
52.193
52.1908
52.1887
52.1865
52.1843
52.1821
52.18
52.1778
52.1756
52.1735
52.1713
52.1691
52.1669
52.1648
52.1626
52.1604
52.1583
52.1561
52.1539
52.1518
52.1496
52.1474
52.1453
52.1431
52.1409
52.1388
52.1366
52.1344
52.1323
52.1301
52.1279
52.1258
52.1236
52.1214
52.1193
52.1171
52.1149
52.1128
52.1106
52.1085
52.1063
52.1041
52.102
52.0998
52.0977
52.0955
52.0933
52.0912
52.089
52.0869
52.0847
52.0825
52.0804
52.0782
52.0761
52.0739
52.0718
52.0696
52.0675
52.0653
52.0631
52.061
52.0588
52.0567
52.0545
52.0524
52.0502
52.0481
52.0459
52.0438
52.0416
52.0395
52.0373
52.0352
52.033
52.0309
52.0287
52.0266
52.0244
52.0223
52.0201
52.018
52.0158
52.0137
52.0115
52.0094
52.0073
52.0051
52.003
52.0008
51.9987
51.9965
51.9944
51.9922
51.9901
51.988
51.9858
51.9837
51.9815
51.9794
51.9772
51.9751
51.973
51.9708
51.9687
51.9665
51.9644
51.9623
51.9601
51.958
51.9559
51.9537
51.9516
51.9494
51.9473
51.9452
51.943
51.9409
51.9388
51.9366
51.9345
51.9324
51.9302
51.9281
51.926
51.9238
51.9217
51.9196
51.9174
51.9153
51.9132
51.911
51.9089
51.9068
51.9047
51.9025
51.9004
51.8983
51.8961
51.894
51.8919
51.8898
51.8876
51.8855
51.8834
51.8813
51.8791
51.877
51.8749
51.8728
51.8706
51.8685
51.8664
51.8643
51.8621
51.86
51.8579
51.8558
51.8537
51.8515
51.8494
51.8473
51.8452
51.8431
51.8409
51.8388
51.8367
51.8346
51.8325
51.8303
51.8282
51.8261