# vtk DataFile Version 2.0
vtk output
ASCII
DATASET STRUCTURED_GRID
DIMENSIONS 50 10 30
POINTS 15000 float
0 0 0
1 0 0
2 0 0
3 0 0
4 0 0
5 0 0
6 0 0
7 0 0
8 0 0
9 0 0
10 0 0
11 0 0
12 0 0
13 0 0
14 0 0
15 0 0
16 0 0
17 0 0
18 0 0
19 0 0
20 0 0
21 0 0
22 0 0
23 0 0
24 0 0
25 0 0
26 0 0
27 0 0
28 0 0
29 0 0
30 0 0
31 0 0
32 0 0
33 0 0
34 0 0
35 0 0
36 0 0
37 0 0
38 0 0
39 0 0
40 0 0
41 0 0
42 0 0
43 0 0
44 0 0
45 0 0
46 0 0
47 0 0
48 0 0
49 0 0
0 1 0
1 1 0
2 1 0
3 1 0
4 1 0
5 1 0
6 1 0
7 1 0
8 1 0
9 1 0
10 1 0
11 1 0
12 1 0
13 1 0
14 1 0
15 1 0
16 1 0
17 1 0
18 1 0
19 1 0
20 1 0
21 1 0
22 1 0
23 1 0
24 1 0
25 1 0
26 1 0
27 1 0
28 1 0
29 1 0
30 1 0
31 1 0
32 1 0
33 1 0
34 1 0
35 1 0
36 1 0
37 1 0
38 1 0
39 1 0
40 1 0
41 1 0
42 1 0
43 1 0
44 1 0
45 1 0
46 1 0
47 1 0
48 1 0
49 1 0
0 2 0
1 2 0
2 2 0
3 2 0
4 2 0
5 2 0
6 2 0
7 2 0
8 2 0
9 2 0
10 2 0
11 2 0
12 2 0
13 2 0
14 2 0
15 2 0
16 2 0
17 2 0
18 2 0
19 2 0
20 2 0
21 2 0
22 2 0
23 2 0
24 2 0
25 2 0
26 2 0
27 2 0
28 2 0
29 2 0
30 2 0
31 2 0
32 2 0
33 2 0
34 2 0
35 2 0
36 2 0
37 2 0
38 2 0
39 2 0
40 2 0
41 2 0
42 2 0
43 2 0
44 2 0
45 2 0
46 2 0
47 2 0
48 2 0
49 2 0
0 3 0
1 3 0
2 3 0
3 3 0
4 3 0
5 3 0
6 3 0
7 3 0
8 3 0
9 3 0
10 3 0
11 3 0
12 3 0
13 3 0
14 3 0
15 3 0
16 3 0
17 3 0
18 3 0
19 3 0
20 3 0
21 3 0
22 3 0
23 3 0
24 3 0
25 3 0
26 3 0
27 3 0
28 3 0
29 3 0
30 3 0
31 3 0
32 3 0
33 3 0
34 3 0
35 3 0
36 3 0
37 3 0
38 3 0
39 3 0
40 3 0
41 3 0
42 3 0
43 3 0
44 3 0
45 3 0
46 3 0
47 3 0
48 3 0
49 3 0
0 4 0
1 4 0
2 4 0
3 4 0
4 4 0
5 4 0
6 4 0
7 4 0
8 4 0
9 4 0
10 4 0
11 4 0
12 4 0
13 4 0
14 4 0
15 4 0
16 4 0
17 4 0
18 4 0
19 4 0
20 4 0
21 4 0
22 4 0
23 4 0
24 4 0
25 4 0
26 4 0
27 4 0
28 4 0
29 4 0
30 4 0
31 4 0
32 4 0
33 4 0
34 4 0
35 4 0
36 4 0
37 4 0
38 4 0
39 4 0
40 4 0
41 4 0
42 4 0
43 4 0
44 4 0
45 4 0
46 4 0
47 4 0
48 4 0
49 4 0
0 5 0
1 5 0
2 5 0
3 5 0
4 5 0
5 5 0
6 5 0
7 5 0
8 5 0
9 5 0
10 5 0
11 5 0
12 5 0
13 5 0
14 5 0
15 5 0
16 5 0
17 5 0
18 5 0
19 5 0
20 5 0
21 5 0
22 5 0
23 5 0
24 5 0
25 5 0
26 5 0
27 5 0
28 5 0
29 5 0
30 5 0
31 5 0
32 5 0
33 5 0
34 5 0
35 5 0
36 5 0
37 5 0
38 5 0
39 5 0
40 5 0
41 5 0
42 5 0
43 5 0
44 5 0
45 5 0
46 5 0
47 5 0
48 5 0
49 5 0
0 6 0
1 6 0
2 6 0
3 6 0
4 6 0
5 6 0
6 6 0
7 6 0
8 6 0
9 6 0
10 6 0
11 6 0
12 6 0
13 6 0
14 6 0
15 6 0
16 6 0
17 6 0
18 6 0
19 6 0
20 6 0
21 6 0
22 6 0
23 6 0
24 6 0
25 6 0
26 6 0
27 6 0
28 6 0
29 6 0
30 6 0
31 6 0
32 6 0
33 6 0
34 6 0
35 6 0
36 6 0
37 6 0
38 6 0
39 6 0
40 6 0
41 6 0
42 6 0
43 6 0
44 6 0
45 6 0
46 6 0
47 6 0
48 6 0
49 6 0
0 7 0
1 7 0
2 7 0
3 7 0
4 7 0
5 7 0
6 7 0
7 7 0
8 7 0
9 7 0
10 7 0
11 7 0
12 7 0
13 7 0
14 7 0
15 7 0
16 7 0
17 7 0
18 7 0
19 7 0
20 7 0
21 7 0
22 7 0
23 7 0
24 7 0
25 7 0
26 7 0
27 7 0
28 7 0
29 7 0
30 7 0
31 7 0
32 7 0
33 7 0
34 7 0
35 7 0
36 7 0
37 7 0
38 7 0
39 7 0
40 7 0
41 7 0
42 7 0
43 7 0
44 7 0
45 7 0
46 7 0
47 7 0
48 7 0
49 7 0
0 8 0
1 8 0
2 8 0
3 8 0
4 8 0
5 8 0
6 8 0
7 8 0
8 8 0
9 8 0
10 8 0
11 8 0
12 8 0
13 8 0
14 8 0
15 8 0
16 8 0
17 8 0
18 8 0
19 8 0
20 8 0
21 8 0
22 8 0
23 8 0
24 8 0
25 8 0
26 8 0
27 8 0
28 8 0
29 8 0
30 8 0
31 8 0
32 8 0
33 8 0
34 8 0
35 8 0
36 8 0
37 8 0
38 8 0
39 8 0
40 8 0
41 8 0
42 8 0
43 8 0
44 8 0
45 8 0
46 8 0
47 8 0
48 8 0
49 8 0
0 9 0
1 9 0
2 9 0
3 9 0
4 9 0
5 9 0
6 9 0
7 9 0
8 9 0
9 9 0
10 9 0
11 9 0
12 9 0
13 9 0
14 9 0
15 9 0
16 9 0
17 9 0
18 9 0
19 9 0
20 9 0
21 9 0
22 9 0
23 9 0
24 9 0
25 9 0
26 9 0
27 9 0
28 9 0
29 9 0
30 9 0
31 9 0
32 9 0
33 9 0
34 9 0
35 9 0
36 9 0
37 9 0
38 9 0
39 9 0
40 9 0
41 9 0
42 9 0
43 9 0
44 9 0
45 9 0
46 9 0
47 9 0
48 9 0
49 9 0
0 0 1
1 0 1
2 0 1
3 0 1
4 0 1
5 0 1
6 0 1
7 0 1
8 0 1
9 0 1
10 0 1
11 0 1
12 0 1
13 0 1
14 0 1
15 0 1
16 0 1
17 0 1
18 0 1
19 0 1
20 0 1
21 0 1
22 0 1
23 0 1
24 0 1
25 0 1
26 0 1
27 0 1
28 0 1
29 0 1
30 0 1
31 0 1
32 0 1
33 0 1
34 0 1
35 0 1
36 0 1
37 0 1
38 0 1
39 0 1
40 0 1
41 0 1
42 0 1
43 0 1
44 0 1
45 0 1
46 0 1
47 0 1
48 0 1
49 0 1
0 1 1
1 1 1
2 1 1
3 1 1
4 1 1
5 1 1
6 1 1
7 1 1
8 1 1
9 1 1
10 1 1
11 1 1
12 1 1
13 1 1
14 1 1
15 1 1
16 1 1
17 1 1
18 1 1
19 1 1
20 1 1
21 1 1
22 1 1
23 1 1
24 1 1
25 1 1
26 1 1
27 1 1
28 1 1
29 1 1
30 1 1
31 1 1
32 1 1
33 1 1
34 1 1
35 1 1
36 1 1
37 1 1
38 1 1
39 1 1
40 1 1
41 1 1
42 1 1
43 1 1
44 1 1
45 1 1
46 1 1
47 1 1
48 1 1
49 1 1
0 2 1
1 2 1
2 2 1
3 2 1
4 2 1
5 2 1
6 2 1
7 2 1
8 2 1
9 2 1
10 2 1
11 2 1
12 2 1
13 2 1
14 2 1
15 2 1
16 2 1
17 2 1
18 2 1
19 2 1
20 2 1
21 2 1
22 2 1
23 2 1
24 2 1
25 2 1
26 2 1
27 2 1
28 2 1
29 2 1
30 2 1
31 2 1
32 2 1
33 2 1
34 2 1
35 2 1
36 2 1
37 2 1
38 2 1
39 2 1
40 2 1
41 2 1
42 2 1
43 2 1
44 2 1
45 2 1
46 2 1
47 2 1
48 2 1
49 2 1
0 3 1
1 3 1
2 3 1
3 3 1
4 3 1
5 3 1
6 3 1
7 3 1
8 3 1
9 3 1
10 3 1
11 3 1
12 3 1
13 3 1
14 3 1
15 3 1
16 3 1
17 3 1
18 3 1
19 3 1
20 3 1
21 3 1
22 3 1
23 3 1
24 3 1
25 3 1
26 3 1
27 3 1
28 3 1
29 3 1
30 3 1
31 3 1
32 3 1
33 3 1
34 3 1
35 3 1
36 3 1
37 3 1
38 3 1
39 3 1
40 3 1
41 3 1
42 3 1
43 3 1
44 3 1
45 3 1
46 3 1
47 3 1
48 3 1
49 3 1
0 4 1
1 4 1
2 4 1
3 4 1
4 4 1
5 4 1
6 4 1
7 4 1
8 4 1
9 4 1
10 4 1
11 4 1
12 4 1
13 4 1
14 4 1
15 4 1
16 4 1
17 4 1
18 4 1
19 4 1
20 4 1
21 4 1
22 4 1
23 4 1
24 4 1
25 4 1
26 4 1
27 4 1
28 4 1
29 4 1
30 4 1
31 4 1
32 4 1
33 4 1
34 4 1
35 4 1
36 4 1
37 4 1
38 4 1
39 4 1
40 4 1
41 4 1
42 4 1
43 4 1
44 4 1
45 4 1
46 4 1
47 4 1
48 4 1
49 4 1
0 5 1
1 5 1
2 5 1
3 5 1
4 5 1
5 5 1
6 5 1
7 5 1
8 5 1
9 5 1
10 5 1
11 5 1
12 5 1
13 5 1
14 5 1
15 5 1
16 5 1
17 5 1
18 5 1
19 5 1
20 5 1
21 5 1
22 5 1
23 5 1
24 5 1
25 5 1
26 5 1
27 5 1
28 5 1
29 5 1
30 5 1
31 5 1
32 5 1
33 5 1
34 5 1
35 5 1
36 5 1
37 5 1
38 5 1
39 5 1
40 5 1
41 5 1
42 5 1
43 5 1
44 5 1
45 5 1
46 5 1
47 5 1
48 5 1
49 5 1
0 6 1
1 6 1
2 6 1
3 6 1
4 6 1
5 6 1
6 6 1
7 6 1
8 6 1
9 6 1
10 6 1
11 6 1
12 6 1
13 6 1
14 6 1
15 6 1
16 6 1
17 6 1
18 6 1
19 6 1
20 6 1
21 6 1
22 6 1
23 6 1
24 6 1
25 6 1
26 6 1
27 6 1
28 6 1
29 6 1
30 6 1
31 6 1
32 6 1
33 6 1
34 6 1
35 6 1
36 6 1
37 6 1
38 6 1
39 6 1
40 6 1
41 6 1
42 6 1
43 6 1
44 6 1
45 6 1
46 6 1
47 6 1
48 6 1
49 6 1
0 7 1
1 7 1
2 7 1
3 7 1
4 7 1
5 7 1
6 7 1
7 7 1
8 7 1
9 7 1
10 7 1
11 7 1
12 7 1
13 7 1
14 7 1
15 7 1
16 7 1
17 7 1
18 7 1
19 7 1
20 7 1
21 7 1
22 7 1
23 7 1
24 7 1
25 7 1
26 7 1
27 7 1
28 7 1
29 7 1
30 7 1
31 7 1
32 7 1
33 7 1
34 7 1
35 7 1
36 7 1
37 7 1
38 7 1
39 7 1
40 7 1
41 7 1
42 7 1
43 7 1
44 7 1
45 7 1
46 7 1
47 7 1
48 7 1
49 7 1
0 8 1
1 8 1
2 8 1
3 8 1
4 8 1
5 8 1
6 8 1
7 8 1
8 8 1
9 8 1
10 8 1
11 8 1
12 8 1
13 8 1
14 8 1
15 8 1
16 8 1
17 8 1
18 8 1
19 8 1
20 8 1
21 8 1
22 8 1
23 8 1
24 8 1
25 8 1
26 8 1
27 8 1
28 8 1
29 8 1
30 8 1
31 8 1
32 8 1
33 8 1
34 8 1
35 8 1
36 8 1
37 8 1
38 8 1
39 8 1
40 8 1
41 8 1
42 8 1
43 8 1
44 8 1
45 8 1
46 8 1
47 8 1
48 8 1
49 8 1
0 9 1
1 9 1
2 9 1
3 9 1
4 9 1
5 9 1
6 9 1
7 9 1
8 9 1
9 9 1
10 9 1
11 9 1
12 9 1
13 9 1
14 9 1
15 9 1
16 9 1
17 9 1
18 9 1
19 9 1
20 9 1
21 9 1
22 9 1
23 9 1
24 9 1
25 9 1
26 9 1
27 9 1
28 9 1
29 9 1
30 9 1
31 9 1
32 9 1
33 9 1
34 9 1
35 9 1
36 9 1
37 9 1
38 9 1
39 9 1
40 9 1
41 9 1
42 9 1
43 9 1
44 9 1
45 9 1
46 9 1
47 9 1
48 9 1
49 9 1
0 0 2
1 0 2
2 0 2
3 0 2
4 0 2
5 0 2
6 0 2
7 0 2
8 0 2
9 0 2
10 0 2
11 0 2
12 0 2
13 0 2
14 0 2
15 0 2
16 0 2
17 0 2
18 0 2
19 0 2
20 0 2
21 0 2
22 0 2
23 0 2
24 0 2
25 0 2
26 0 2
27 0 2
28 0 2
29 0 2
30 0 2
31 0 2
32 0 2
33 0 2
34 0 2
35 0 2
36 0 2
37 0 2
38 0 2
39 0 2
40 0 2
41 0 2
42 0 2
43 0 2
44 0 2
45 0 2
46 0 2
47 0 2
48 0 2
49 0 2
0 1 2
1 1 2
2 1 2
3 1 2
4 1 2
5 1 2
6 1 2
7 1 2
8 1 2
9 1 2
10 1 2
11 1 2
12 1 2
13 1 2
14 1 2
15 1 2
16 1 2
17 1 2
18 1 2
19 1 2
20 1 2
21 1 2
22 1 2
23 1 2
24 1 2
25 1 2
26 1 2
27 1 2
28 1 2
29 1 2
30 1 2
31 1 2
32 1 2
33 1 2
34 1 2
35 1 2
36 1 2
37 1 2
38 1 2
39 1 2
40 1 2
41 1 2
42 1 2
43 1 2
44 1 2
45 1 2
46 1 2
47 1 2
48 1 2
49 1 2
0 2 2
1 2 2
2 2 2
3 2 2
4 2 2
5 2 2
6 2 2
7 2 2
8 2 2
9 2 2
10 2 2
11 2 2
12 2 2
13 2 2
14 2 2
15 2 2
16 2 2
17 2 2
18 2 2
19 2 2
20 2 2
21 2 2
22 2 2
23 2 2
24 2 2
25 2 2
26 2 2
27 2 2
28 2 2
29 2 2
30 2 2
31 2 2
32 2 2
33 2 2
34 2 2
35 2 2
36 2 2
37 2 2
38 2 2
39 2 2
40 2 2
41 2 2
42 2 2
43 2 2
44 2 2
45 2 2
46 2 2
47 2 2
48 2 2
49 2 2
0 3 2
1 3 2
2 3 2
3 3 2
4 3 2
5 3 2
6 3 2
7 3 2
8 3 2
9 3 2
10 3 2
11 3 2
12 3 2
13 3 2
14 3 2
15 3 2
16 3 2
17 3 2
18 3 2
19 3 2
20 3 2
21 3 2
22 3 2
23 3 2
24 3 2
25 3 2
26 3 2
27 3 2
28 3 2
29 3 2
30 3 2
31 3 2
32 3 2
33 3 2
34 3 2
35 3 2
36 3 2
37 3 2
38 3 2
39 3 2
40 3 2
41 3 2
42 3 2
43 3 2
44 3 2
45 3 2
46 3 2
47 3 2
48 3 2
49 3 2
0 4 2
1 4 2
2 4 2
3 4 2
4 4 2
5 4 2
6 4 2
7 4 2
8 4 2
9 4 2
10 4 2
11 4 2
12 4 2
13 4 2
14 4 2
15 4 2
16 4 2
17 4 2
18 4 2
19 4 2
20 4 2
21 4 2
22 4 2
23 4 2
24 4 2
25 4 2
26 4 2
27 4 2
28 4 2
29 4 2
30 4 2
31 4 2
32 4 2
33 4 2
34 4 2
35 4 2
36 4 2
37 4 2
38 4 2
39 4 2
40 4 2
41 4 2
42 4 2
43 4 2
44 4 2
45 4 2
46 4 2
47 4 2
48 4 2
49 4 2
0 5 2
1 5 2
2 5 2
3 5 2
4 5 2
5 5 2
6 5 2
7 5 2
8 5 2
9 5 2
10 5 2
11 5 2
12 5 2
13 5 2
14 5 2
15 5 2
16 5 2
17 5 2
18 5 2
19 5 2
20 5 2
21 5 2
22 5 2
23 5 2
24 5 2
25 5 2
26 5 2
27 5 2
28 5 2
29 5 2
30 5 2
31 5 2
32 5 2
33 5 2
34 5 2
35 5 2
36 5 2
37 5 2
38 5 2
39 5 2
40 5 2
41 5 2
42 5 2
43 5 2
44 5 2
45 5 2
46 5 2
47 5 2
48 5 2
49 5 2
0 6 2
1 6 2
2 6 2
3 6 2
4 6 2
5 6 2
6 6 2
7 6 2
8 6 2
9 6 2
10 6 2
11 6 2
12 6 2
13 6 2
14 6 2
15 6 2
16 6 2
17 6 2
18 6 2
19 6 2
20 6 2
21 6 2
22 6 2
23 6 2
24 6 2
25 6 2
26 6 2
27 6 2
28 6 2
29 6 2
30 6 2
31 6 2
32 6 2
33 6 2
34 6 2
35 6 2
36 6 2
37 6 2
38 6 2
39 6 2
40 6 2
41 6 2
42 6 2
43 6 2
44 6 2
45 6 2
46 6 2
47 6 2
48 6 2
49 6 2
0 7 2
1 7 2
2 7 2
3 7 2
4 7 2
5 7 2
6 7 2
7 7 2
8 7 2
9 7 2
10 7 2
11 7 2
12 7 2
13 7 2
14 7 2
15 7 2
16 7 2
17 7 2
18 7 2
19 7 2
20 7 2
21 7 2
22 7 2
23 7 2
24 7 2
25 7 2
26 7 2
27 7 2
28 7 2
29 7 2
30 7 2
31 7 2
32 7 2
33 7 2
34 7 2
35 7 2
36 7 2
37 7 2
38 7 2
39 7 2
40 7 2
41 7 2
42 7 2
43 7 2
44 7 2
45 7 2
46 7 2
47 7 2
48 7 2
49 7 2
0 8 2
1 8 2
2 8 2
3 8 2
4 8 2
5 8 2
6 8 2
7 8 2
8 8 2
9 8 2
10 8 2
11 8 2
12 8 2
13 8 2
14 8 2
15 8 2
16 8 2
17 8 2
18 8 2
19 8 2
20 8 2
21 8 2
22 8 2
23 8 2
24 8 2
25 8 2
26 8 2
27 8 2
28 8 2
29 8 2
30 8 2
31 8 2
32 8 2
33 8 2
34 8 2
35 8 2
36 8 2
37 8 2
38 8 2
39 8 2
40 8 2
41 8 2
42 8 2
43 8 2
44 8 2
45 8 2
46 8 2
47 8 2
48 8 2
49 8 2
0 9 2
1 9 2
2 9 2
3 9 2
4 9 2
[...]
POINT_DATA 15000
SCALARS sol200 float
LOOKUP_TABLE default
58.025
58.022
58.0189
58.0159
58.0128
58.0098
58.0067
58.0037
58.0006
57.9976
57.9945
57.9915
57.9885
57.9854
57.9824
57.9793
57.9763
57.9732
57.9702
57.9672
57.9641
57.9611
57.958
57.955
57.952
57.9489
57.9459
57.9428
57.9398
57.9368
57.9337
57.9307
57.9276
57.9246
57.9216
57.9185
57.9155
57.9125
57.9094
57.9064
57.9034
57.9003
57.8973
57.8943
57.8912
57.8882
57.8852
57.8822
57.8791
57.8761
57.8731
57.87
57.867
57.864
57.861
57.8579
57.8549
57.8519
57.8488
57.8458
57.8428
57.8398
57.8367
57.8337
57.8307
57.8277
57.8247
57.8216
57.8186
57.8156
57.8126
57.8096
57.8065
57.8035
57.8005
57.7975
57.7945
57.7914
57.7884
57.7854
57.7824
57.7794
57.7764
57.7733
57.7703
57.7673
57.7643
57.7613
57.7583
57.7553
57.7522
57.7492
57.7462
57.7432
57.7402
57.7372
57.7342
57.7312
57.7281
57.7251
57.7221
57.7191
57.7161
57.7131
57.7101
57.7071
57.7041
57.7011
57.6981
57.6951
57.6921
57.6891
57.6861
57.6831
57.6801
57.677
57.674
57.671
57.668
57.665
57.662
57.659
57.656
57.653
57.65
57.647
57.644
57.641
57.638
57.6351
57.6321
57.6291
57.6261
57.6231
57.6201
57.6171
57.6141
57.6111
57.6081
57.6051
57.6021
57.5991
57.5961
57.5931
57.5901
57.5872
57.5842
57.5812
57.5782
57.5752
57.5722
57.5692
57.5662
57.5632
57.5603
57.5573
57.5543
57.5513
57.5483
57.5453
57.5423
57.5394
57.5364
57.5334
57.5304
57.5274
57.5244
57.5215
57.5185
57.5155
57.5125
57.5095
57.5066
57.5036
57.5006
57.4976
57.4946
57.4917
57.4887
57.4857
57.4827
57.4797
57.4768
57.4738
57.4708
57.4678
57.4649
57.4619
57.4589
57.456
57.453
57.45
57.447
57.4441
57.4411
57.4381
57.4352
57.4322
57.4292
57.4262
57.4233
57.4203
57.4173
57.4144
57.4114
57.4084
57.4055
57.4025
57.3995
57.3966
57.3936
57.3906
57.3877
57.3847
57.3818
57.3788
57.3758
57.3729
57.3699
57.3669
57.364
57.361
57.3581
57.3551
57.3521
57.3492
57.3462
57.3433
57.3403
57.3374
57.3344
57.3314
57.3285
57.3255
57.3226
57.3196
57.3167
57.3137
57.3108
57.3078
57.3048
57.3019
57.2989
57.296
57.293
57.2901
57.2871
57.2842
57.2812
57.2783
57.2753
57.2724
57.2694
57.2665
57.2636
57.2606
57.2577
57.2547
57.2518
57.2488
57.2459
57.2429
57.24
57.237
57.2341
57.2312
57.2282
57.2253
57.2223
57.2194
57.2164
57.2135
57.2106
57.2076
57.2047
57.2017
57.1988
57.1959
57.1929
57.19
57.1871
57.1841
57.1812
57.1783
57.1753
57.1724
57.1694
57.1665
57.1636
57.1606
57.1577
57.1548
57.1518
57.1489
57.146
57.1431
57.1401
57.1372
57.1343
57.1313
57.1284
57.1255
57.1225
57.1196
57.1167
57.1138
57.1108
57.1079
57.105
57.1021
57.0991
57.0962
57.0933
57.0904
57.0874
57.0845
57.0816
57.0787
57.0757
57.0728
57.0699
57.067
57.0641
57.0611
57.0582
57.0553
57.0524
57.0495
57.0466
57.0436
57.0407
57.0378
57.0349
57.032
57.0291
57.0261
57.0232
57.0203
57.0174
57.0145
57.0116
57.0087
57.0057
57.0028
56.9999
56.997
56.9941
56.9912
56.9883
56.9854
56.9825
56.9795
56.9766
56.9737
56.9708
56.9679
56.965
56.9621
56.9592
56.9563
56.9534
56.9505
56.9476
56.9447
56.9418
56.9389
56.936
56.9331
56.9302
56.9273
56.9244
56.9215
56.9186
56.9157
56.9128
56.9099
56.907
56.9041
56.9012
56.8983
56.8954
56.8925
56.8896
56.8867
56.8838
56.8809
56.878
56.8751
56.8722
56.8693
56.8664
56.8635
56.8606
56.8577
56.8548
56.8519
56.8491
56.8462
56.8433
56.8404
56.8375
56.8346
56.8317
56.8288
56.8259
56.823
56.8202
56.8173
56.8144
56.8115
56.8086
56.8057
56.8028
56.8
56.7971
56.7942
56.7913
56.7884
56.7855
56.7827
56.7798
56.7769
56.774
56.7711
56.7683
56.7654
56.7625
56.7596
56.7567
56.7539
56.751
56.7481
56.7452
56.7424
56.7395
56.7366
56.7337
56.7309
56.728
56.7251
56.7222
56.7194
56.7165
56.7136
56.7107
56.7079
56.705
56.7021
56.6993
56.6964
56.6935
56.6906
56.6878
56.6849
56.682
56.6792
56.6763
56.6734
56.6706
56.6677
56.6648
56.662
56.6591
56.6562
56.6534
56.6505
56.6476
56.6448
56.6419
56.6391
56.6362
56.6333
56.6305
56.6276
56.6247
56.6219
56.619
56.6162
56.6133
56.6104
56.6076
56.6047
56.6019
56.599
56.5962
56.5933
56.5904
56.5876
56.5847
56.5819
56.579
56.5762
56.5733
56.5705
56.5676
56.5648
56.5619
56.5591
56.5562
56.5534
56.5505
56.5477
56.5448
56.542
56.5391
56.5363
56.5334
56.5306
56.5277
56.5249
56.522
56.5192
56.5163
56.5135
56.5106
56.5078
56.505
56.5021
56.4993
56.4964
56.4936
56.4907
56.4879
56.4851
56.4822
56.4794
56.4765
56.4737
56.4709
56.468
56.4652
56.4623
56.4595
56.4567
56.4538
56.451
56.4481
56.4453
56.4425
56.4396
56.4368
56.434
56.4311
56.4283
56.4255
56.4226
56.4198
56.417
56.4141
56.4113
56.4085
56.4056
56.4028
56.4
56.3972
56.3943
56.3915
56.3887
56.3858
56.383
56.3802
56.3774
56.3745
56.3717
56.3689
56.3661
56.3632
56.3604
56.3576
56.3548
56.3519
56.3491
56.3463
56.3435
56.3406
56.3378
56.335
56.3322
56.3294
56.3265
56.3237
56.3209
56.3181
56.3153
56.3125
56.3096
56.3068
56.304
56.3012
56.2984
56.2956
56.2927
56.2899
56.2871
56.2843
56.2815
56.2787
56.2759
56.273
56.2702
56.2674
56.2646
56.2618
56.259
56.2562
56.2534
56.2506
56.2477
56.2449
56.2421
56.2393
56.2365
56.2337
56.2309
56.2281
56.2253
56.2225
56.2197
56.2169
56.2141
56.2113
56.2085
56.2057
56.2029
56.2001
56.1973
56.1944
56.1916
56.1888
56.186
56.1832
56.1804
56.1776
56.1748
56.172
56.1693
56.1665
56.1637
56.1609
56.1581
56.1553
56.1525
56.1497
56.1469
56.1441
56.1413
56.1385
56.1357
56.1329
56.1301
56.1273
56.1245
56.1217
56.119
56.1162
56.1134
56.1106
56.1078
56.105
56.1022
56.0994
56.0966
56.0938
56.0911
56.0883
56.0855
56.0827
56.0799
56.0771
56.0743
56.0716
56.0688
56.066
56.0632
56.0604
56.0576
56.0549
56.0521
56.0493
56.0465
56.0437
56.041
56.0382
56.0354
56.0326
56.0298
56.0271
56.0243
56.0215
56.0187
56.0159
56.0132
56.0104
56.0076
56.0048
56.0021
55.9993
55.9965
55.9937
55.991
55.9882
55.9854
55.9827
55.9799
55.9771
55.9743
55.9716
55.9688
55.966
55.9633
55.9605
55.9577
55.9549
55.9522
55.9494
55.9466
55.9439
55.9411
55.9383
55.9356
55.9328
55.93
55.9273
55.9245
55.9218
55.919
55.9162
55.9135
55.9107
55.9079
55.9052
55.9024
55.8997
55.8969
55.8941
55.8914
55.8886
55.8859
55.8831
55.8803
55.8776
55.8748
55.8721
55.8693
55.8666
55.8638
55.861
55.8583
55.8555
55.8528
55.85
55.8473
55.8445
55.8418
55.839
55.8363
55.8335
55.8308
55.828
55.8253
55.8225
55.8198
55.817
55.8143
55.8115
55.8088
55.806
55.8033
55.8005
55.7978
55.795
55.7923
55.7895
55.7868
55.784
55.7813
55.7786
55.7758
55.7731
55.7703
55.7676
55.7648
55.7621
55.7594
55.7566
55.7539
55.7511
55.7484
55.7457
55.7429
55.7402
55.7374
55.7347
55.732
55.7292
55.7265
55.7238
55.721
55.7183
55.7155
55.7128
55.7101
55.7073
55.7046
55.7019
55.6991
55.6964
55.6937
55.6909
55.6882
55.6855
55.6828
55.68
55.6773
55.6746
55.6718
55.6691
55.6664
55.6636
55.6609
55.6582
55.6555
55.6527
55.65
55.6473
55.6446
55.6418
55.6391
55.6364
55.6337
55.6309
55.6282
55.6255
55.6228
55.62
55.6173
55.6146
55.6119
55.6092
55.6064
55.6037
55.601
55.5983
55.5956
55.5928
55.5901
55.5874
55.5847
55.582
55.5793
55.5765
55.5738
55.5711
55.5684
55.5657
55.563
55.5603
55.5575
55.5548
55.5521
55.5494
55.5467
55.544
55.5413
55.5386
55.5359
55.5331
55.5304
55.5277
55.525
55.5223
55.5196
55.5169
55.5142
55.5115
55.5088
55.5061
55.5034
55.5007
55.498
55.4952
55.4925
55.4898
55.4871
55.4844
55.4817
55.479
55.4763
55.4736
55.4709
55.4682
55.4655
55.4628
55.4601
55.4574
55.4547
55.452
55.4493
55.4466
55.4439
55.4412
55.4385
55.4358
55.4331
55.4304
55.4278
55.4251
55.4224
55.4197
55.417
55.4143
55.4116
55.4089
55.4062
55.4035
55.4008
55.3981
55.3954
55.3928
55.3901
55.3874
55.3847
55.382
55.3793
55.3766
55.3739
55.3712
55.3686
55.3659
55.3632
55.3605
55.3578
55.3551
55.3524
55.3498
55.3471
55.3444
55.3417
55.339
55.3363
55.3337
55.331
55.3283
55.3256
55.3229
55.3203
55.3176
55.3149
55.3122
55.3095
55.3069
55.3042
55.3015
55.2988
55.2962
55.2935
55.2908
55.2881
55.2855
55.2828
55.2801
55.2774
55.2748
55.2721
55.2694
55.2667
55.2641
55.2614
55.2587
55.2561
55.2534
55.2507
55.248
55.2454
55.2427
55.24
55.2374
55.2347
55.232
55.2294
55.2267
55.224
55.2214
55.2187
55.216
55.2134
55.2107
55.208
55.2054
55.2027
55.2
55.1974
55.1947
55.1921
55.1894
55.1867
55.1841
55.1814
55.1788
55.1761
55.1734
55.1708
55.1681
55.1655
55.1628
55.1601
55.1575
55.1548
55.1522
55.1495
55.1469
55.1442
55.1416
55.1389
55.1362
55.1336
55.1309
55.1283
55.1256
55.123
55.1203
55.1177
55.115
55.1124
55.1097
55.1071
55.1044
55.1018
55.0991
55.0965
55.0938
55.0912
55.0885
55.0859
55.0832
55.0806
55.0779
55.0753
55.0727
55.07
55.0674
55.0647
55.0621
55.0594
55.0568
55.0542
55.0515
55.0489
55.0462
55.0436
55.0409
55.0383
55.0357
55.033
55.0304
55.0277
55.0251
55.0225
55.0198
55.0172
55.0146
55.0119
55.0093
55.0067
55.004
55.0014
54.9987
54.9961
54.9935
54.9908
54.9882
54.9856
54.9829
54.9803
54.9777
54.9751
54.9724
54.9698
54.9672
54.9645
54.9619
54.9593
54.9566
54.954
54.9514
54.9488
54.9461
54.9435
54.9409
54.9383
54.9356
54.933
54.9304
54.9278
54.9251
54.9225
54.9199
54.9173
54.9146
54.912
54.9094
54.9068
54.9041
54.9015
54.8989
54.8963
54.8937
54.891
54.8884
54.8858
54.8832
54.8806
54.878
54.8753
54.8727
54.8701
54.8675
54.8649
54.8623
54.8596
54.857
54.8544
54.8518
54.8492
54.8466
54.844
54.8413
54.8387
54.8361
54.8335
54.8309
54.8283
54.8257
54.8231
54.8205
54.8179
54.8152
54.8126
54.81
54.8074
54.8048
54.8022
54.7996
54.797
54.7944
54.7918
54.7892
54.7866
54.784
54.7814
54.7788
54.7762
54.7736
54.771
54.7684
54.7658
54.7632
54.7606
54.758
54.7554
54.7528
54.7502
54.7476
54.745
54.7424
54.7398
54.7372
54.7346
54.732
54.7294
54.7268
54.7242
54.7216
54.719
54.7164
54.7138
54.7112
54.7086
54.706
54.7034
54.7008
54.6982
54.6957
54.6931
54.6905
54.6879
54.6853
54.6827
54.6801
54.6775
54.6749
54.6723
54.6698
54.6672
54.6646
54.662
54.6594
54.6568
54.6542
54.6517
54.6491
54.6465
54.6439
54.6413
54.6387
54.6361
54.6336
54.631
54.6284
54.6258
54.6232
54.6207
54.6181
54.6155
54.6129
54.6103
54.6078
54.6052
54.6026
54.6
54.5974
54.5949
54.5923
54.5897
54.5871
54.5846
54.582
54.5794
54.5768
54.5743
54.5717
54.5691
54.5665
54.564
54.5614
54.5588
54.5563
54.5537
54.5511
54.5485
54.546
54.5434
54.5408
54.5383
54.5357
54.5331
54.5306
54.528
54.5254
54.5229
54.5203
54.5177
54.5152
54.5126
54.51
54.5075
54.5049
54.5023
54.4998
54.4972
54.4946
54.4921
54.4895
54.487
54.4844
54.4818
54.4793
54.4767
54.4742
54.4716
54.469
54.4665
54.4639
54.4614
54.4588
54.4563
54.4537
54.4511
54.4486
54.446
54.4435
54.4409
54.4384
54.4358
54.4333
54.4307
54.4281
54.4256
54.423
54.4205
54.4179
54.4154
54.4128
54.4103
54.4077
54.4052
54.4026
54.4001
54.3975
54.395
54.3924
54.3899
54.3873
54.3848
54.3823
54.3797
54.3772
54.3746
54.3721
54.3695
54.367
54.3644
54.3619
54.3593
54.3568
54.3543
54.3517
54.3492
54.3466
54.3441
54.3416
54.339
54.3365
54.3339
54.3314
54.3289
54.3263
54.3238
54.3212
54.3187
54.3162
54.3136
54.3111
54.3086
54.306
54.3035
54.301
54.2984
54.2959
54.2934
54.2908
54.2883
54.2858
54.2832
54.2807
54.2782
54.2756
54.2731
54.2706
54.268
54.2655
54.263
54.2604
54.2579
54.2554
54.2529
54.2503
54.2478
54.2453
54.2428
54.2402
54.2377
54.2352
54.2327
54.2301
54.2276
54.2251
54.2226
54.22
54.2175
54.215
54.2125
54.2099
54.2074
54.2049
54.2024
54.1999
54.1973
54.1948
54.1923
54.1898
54.1873
54.1847
54.1822
54.1797
54.1772
54.1747
54.1722
54.1696
54.1671
54.1646
54.1621
54.1596
54.1571
54.1546
54.152
54.1495
54.147
54.1445
54.142
54.1395
54.137
54.1345
54.132
54.1294
54.1269
54.1244
54.1219
54.1194
54.1169
54.1144
54.1119
54.1094
54.1069
54.1044
54.1019
54.0993
54.0968
54.0943
54.0918
54.0893
54.0868
54.0843
54.0818
54.0793
54.0768
54.0743
54.0718
54.0693
54.0668
54.0643
54.0618
54.0593
54.0568
54.0543
54.0518
54.0493
54.0468
54.0443
54.0418
54.0393
54.0368
54.0343
54.0318
54.0293
54.0268
54.0243
54.0219
54.0194
54.0169
54.0144
54.0119
54.0094
54.0069
54.0044
54.0019
53.9994
53.9969
53.9944
53.9919
53.9895
53.987
53.9845
53.982
53.9795
53.977
53.9745
53.972
53.9696
53.9671
53.9646
53.9621
53.9596
53.9571
53.9546
53.9522
53.9497
53.9472
53.9447
53.9422
53.9397
53.9373
53.9348
53.9323
53.9298
53.9273
53.9249
53.9224
53.9199
53.9174
53.9149
53.9125
53.91
53.9075
53.905
53.9025
53.9001
53.8976
53.8951
53.8926
53.8902
53.8877
53.8852
53.8827
53.8803
53.8778
53.8753
53.8729
53.8704
53.8679
53.8654
53.863
53.8605
53.858
53.8556
53.8531
53.8506
53.8481
53.8457
53.8432
53.8407
53.8383
53.8358
53.8333
53.8309
53.8284
53.8259
53.8235
53.821
53.8185
53.8161
53.8136
53.8112
53.8087
53.8062
53.8038
53.8013
53.7988
53.7964
53.7939
53.7915
53.789
53.7865
53.7841
53.7816
53.7792
53.7767
53.7742
53.7718
53.7693
53.7669
53.7644
53.762
53.7595
53.757
53.7546
53.7521
53.7497
53.7472
53.7448
53.7423
53.7399
53.7374
53.735
53.7325
53.7301
53.7276
53.7252
53.7227
53.7203
53.7178
53.7154
53.7129
53.7105
53.708
53.7056
53.7031
53.7007
53.6982
53.6958
53.6933
53.6909
53.6884
53.686
53.6835
53.6811
53.6787
53.6762
53.6738
53.6713
53.6689
53.6664
53.664
53.6616
53.6591
53.6567
53.6542
53.6518
53.6493
53.6469
53.6445
53.642
53.6396
53.6372
53.6347
53.6323
53.6298
53.6274
53.625
53.6225
53.6201
53.6177
53.6152
53.6128
53.6104
53.6079
53.6055
53.6031
53.6006
53.5982
53.5958
53.5933
53.5909
53.5885
53.586
53.5836
53.5812
53.5787
53.5763
53.5739
53.5715
53.569
53.5666
53.5642
53.5618
53.5593
53.5569
53.5545
53.552
53.5496
53.5472
53.5448
53.5423
53.5399
53.5375
53.5351
53.5327
53.5302
53.5278
53.5254
53.523
53.5205
53.5181
53.5157
53.5133
53.5109
53.5084
53.506
53.5036
53.5012
53.4988
53.4964
53.4939
53.4915
53.4891
53.4867
53.4843
53.4819
53.4794
53.477
53.4746
53.4722
53.4698
53.4674
53.465
53.4626
53.4601
53.4577
53.4553
53.4529
53.4505
53.4481
53.4457
53.4433
53.4409
53.4385
53.436
53.4336
53.4312
53.4288
53.4264
53.424
53.4216
53.4192
53.4168
53.4144
53.412
53.4096
53.4072
53.4048
53.4024
53.4
53.3976
53.3952
53.3928
53.3904
53.3879
53.3855
53.3831
53.3807
53.3783
53.3759
53.3735
53.3711
53.3688
53.3664
53.364
53.3616
53.3592
53.3568
53.3544
53.352
53.3496
53.3472
53.3448
53.3424
53.34
53.3376
53.3352
53.3328
53.3304
53.328
53.3256
53.3232
53.3209
53.3185
53.3161
53.3137
53.3113
53.3089
53.3065
53.3041
53.3017
53.2994
53.297
53.2946
53.2922
53.2898
53.2874
53.285
53.2826
53.2803
53.2779
53.2755
53.2731
53.2707
53.2683
53.266
53.2636
53.2612
53.2588
53.2564
53.254
53.2517
53.2493
53.2469
53.2445
53.2421
53.2398
53.2374
53.235
53.2326
53.2303
53.2279
53.2255
53.2231
53.2207
53.2184
53.216
53.2136
53.2112
53.2089
53.2065
53.2041
53.2017
53.1994
53.197
53.1946
53.1923
53.1899
53.1875
53.1851
53.1828
53.1804
53.178
53.1757
53.1733
53.1709
53.1686
53.1662
53.1638
53.1615
53.1591
53.1567
53.1543
53.152
53.1496
53.1473
53.1449
53.1425
53.1402
53.1378
53.1354
53.1331
53.1307
53.1283
53.126
53.1236
53.1213
53.1189
53.1165
53.1142
53.1118
53.1095
53.1071
53.1047
53.1024
53.1
53.0977
53.0953
53.0929
53.0906
53.0882
53.0859
53.0835
53.0812
53.0788
53.0765
53.0741
53.0717
53.0694
53.067
53.0647
53.0623
53.06
53.0576
53.0553
53.0529
53.0506
53.0482
53.0459
53.0435
53.0412
53.0388
53.0365
53.0341
53.0318
53.0294
53.0271
53.0247
53.0224
53.02
53.0177
53.0154
53.013
53.0107
53.0083
53.006
53.0036
53.0013
52.9989
52.9966
52.9943
52.9919
52.9896
52.9872
52.9849
52.9826
52.9802
52.9779
52.9755
52.9732
52.9709
52.9685
52.9662
52.9638
52.9615
52.9592
52.9568
52.9545
52.9522
52.9498
52.9475
52.9451
52.9428
52.9405
52.9381
52.9358
52.9335
52.9311
52.9288
52.9265
52.9241
52.9218
52.9195
52.9172
52.9148
52.9125
52.9102
52.9078
52.9055
52.9032
52.9008
52.8985
52.8962
52.8939
52.8915
52.8892
52.8869
52.8846
52.8822
52.8799
52.8776
52.8753
52.8729
52.8706
52.8683
52.866
52.8636
52.8613
52.859
52.8567
52.8544
52.852
52.8497
52.8474
52.8451
52.8428
52.8404
52.8381
52.8358
52.8335
52.8312
52.8288
52.8265
52.8242
52.8219
52.8196
52.8173
52.8149
52.8126
52.8103
52.808
52.8057
52.8034
52.8011
52.7987
52.7964
52.7941
52.7918
52.7895
52.7872
52.7849
52.7826
52.7803
52.7779
52.7756
52.7733
52.771
52.7687
52.7664
52.7641
52.7618
52.7595
52.7572
52.7549
52.7526
52.7503
52.748
52.7456
52.7433
52.741
52.7387
52.7364
52.7341
52.7318
52.7295
52.7272
52.7249
52.7226
52.7203
52.718
52.7157
52.7134
52.7111
52.7088
52.7065
52.7042
52.7019
52.6996
52.6973
52.695
52.6927
52.6904
52.6881
52.6858
52.6835
52.6813
52.679
52.6767
52.6744
52.6721
52.6698
52.6675
52.6652
52.6629
52.6606
52.6583
52.656
52.6537
52.6514
52.6492
52.6469
52.6446
52.6423
52.64
52.6377
52.6354
52.6331
52.6308
52.6286
52.6263
52.624
52.6217
52.6194
52.6171
52.6148
52.6126
52.6103
52.608
52.6057
52.6034
52.6011
52.5989
52.5966
52.5943
52.592
52.5897
52.5875
52.5852
52.5829
52.5806
52.5783
52.5761
52.5738
52.5715
52.5692
52.5669
52.5647
52.5624
52.5601
52.5578
52.5556
52.5533
52.551
52.5487
52.5465
52.5442
52.5419
52.5396
52.5374
52.5351
52.5328
52.5305
52.5283
52.526
52.5237
52.5215
52.5192
52.5169
52.5146
52.5124
52.5101
52.5078
52.5056
52.5033
52.501
52.4988
52.4965
52.4942
52.492
52.4897
52.4874
52.4852
52.4829
52.4806
52.4784
52.4761
52.4739
52.4716
52.4693
52.4671
52.4648
52.4625
52.4603
52.458
52.4558
52.4535
52.4512
52.449
52.4467
52.4445
52.4422
52.4399
52.4377
52.4354
52.4332
52.4309
52.4287
52.4264
52.4241
52.4219
52.4196
52.4174
52.4151
52.4129
52.4106
52.4084
52.4061
52.4039
52.4016
52.3994
52.3971
52.3948
52.3926
52.3903
52.3881
52.3858
52.3836
52.3813
52.3791
52.3768
52.3746
52.3724
52.3701
52.3679
52.3656
52.3634
52.3611
52.3589
52.3566
52.3544
52.3521
52.3499
52.3476
52.3454
52.3432
52.3409
52.3387
52.3364
52.3342
52.3319
52.3297
52.3275
52.3252
52.323
52.3207
52.3185
52.3163
52.314
52.3118
52.3096
52.3073
52.3051
52.3028
52.3006
52.2984
52.2961
52.2939
52.2917
52.2894
52.2872
52.285
52.2827
52.2805
52.2783
52.276
52.2738
52.2716
52.2693
52.2671
52.2649
52.2626
52.2604
52.2582
52.2559
52.2537
52.2515
52.2492
52.247
52.2448
52.2426
52.2403
52.2381
52.2359
52.2337
52.2314
52.2292
52.227
52.2248
52.2225
52.2203
52.2181
52.2159
52.2136
52.2114
52.2092
52.207
52.2047
52.2025
52.2003
52.1981
52.1959
52.1936
52.1914
52.1892
52.187
52.1848
52.1825
52.1803
52.1781
52.1759
52.1737
52.1715
52.1692
52.167
52.1648
52.1626
52.1604
52.1582
52.1559
52.1537
52.1515
52.1493
52.1471
52.1449
52.1427
52.1405
52.1382
52.136
52.1338
52.1316
52.1294
52.1272
52.125
52.1228
52.1206
52.1184
52.1161
52.1139
52.1117
52.1095
52.1073
52.1051
52.1029
52.1007
52.0985
52.0963
52.0941
52.0919
52.0897
52.0875
52.0853
52.0831
52.0809
52.0787
52.0765
52.0743
52.072
52.0698
52.0676
52.0654
52.0632
52.061
52.0588
52.0566
52.0544
52.0523
52.0501
52.0479
52.0457
52.0435
52.0413
52.0391
52.0369
52.0347
52.0325
52.0303
52.0281
52.0259
52.0237
52.0215
52.0193
52.0171
52.0149
52.0127
52.0105
52.0084
52.0062
52.004
52.0018
51.9996
51.9974
51.9952
51.993
51.9908
51.9886
51.9865
51.9843
51.9821
51.9799
51.9777
51.9755
51.9733
51.9712
51.969
51.9668
51.9646
51.9624
51.9602
51.958
51.9559
51.9537
51.9515
51.9493
51.9471
51.9449
51.9428
51.9406
51.9384
51.9362
51.934
51.9319
51.9297
51.9275
51.9253
51.9232
51.921
51.9188
51.9166
51.9144
51.9123
51.9101
51.9079
51.9057
51.9036
51.9014
51.8992
51.897
51.8949
51.8927
51.8905
51.8883
51.8862
51.884
51.8818
51.8797
51.8775
51.8753
51.8731
51.871
51.8688
51.8666
51.8645
51.8623
51.8601
51.858
51.8558
51.8536
51.8515
51.8493
51.8471
51.845
51.8428
51.8406
51.8385
51.8363
51.8341
51.832
51.8298
51.8276
51.8255
51.8233
51.8212
51.819
51.8168
51.8147
51.8125
51.8104
51.8082
51.806
51.8039
51.8017
51.7996
51.7974
51.7952
51.7931
51.7909
51.7888
51.7866
51.7845
51.7823
51.7801
51.778
51.7758
51.7737
51.7715
51.7694
51.7672
51.7651
51.7629
51.7608
51.7586
51.7565
51.7543
51.7521
51.75
51.7478
51.7457
51.7435
51.7414
51.7392
51.7371
51.7349
51.7328
51.7307
51.7285
51.7264
51.7242
51.7221
51.7199
51.7178
51.7156
51.7135
51.7113
51.7092
51.707
51.7049
51.7028
51.7006
51.6985
51.6963
51.6942
51.692
51.6899
51.6878
51.6856
51.6835
51.6813
51.6792
51.6771
51.6749
51.6728
51.6706
51.6685
51.6664
51.6642
51.6621
51.66
51.6578
51.6557
51.6536
51.6514
51.6493
51.6471
51.645
51.6429
51.6407
51.6386
51.6365
51.6343
51.6322
51.6301
51.6279
51.6258
51.6237
51.6216
51.6194
51.6173
51.6152
51.613
51.6109
51.6088
51.6066
51.6045
51.6024
51.6003
51.5981
51.596
51.5939
51.5918
51.5896
51.5875
51.5854
51.5833
51.5811
51.579
51.5769
51.5748
51.5726
51.5705
51.5684
51.5663
51.5642
51.562
51.5599
51.5578
51.5557
51.5535
51.5514
51.5493
51.5472
51.5451
51.543
51.5408
51.5387
51.5366
51.5345
51.5324