# vtk DataFile Version 2.0
vtk output
ASCII
DATASET STRUCTURED_GRID
DIMENSIONS 50 10 30
POINTS 15000 float
0 0 0
1 0 0
2 0 0
3 0 0
4 0 0
5 0 0
6 0 0
7 0 0
8 0 0
9 0 0
10 0 0
11 0 0
12 0 0
13 0 0
14 0 0
15 0 0
16 0 0
17 0 0
18 0 0
19 0 0
20 0 0
21 0 0
22 0 0
23 0 0
24 0 0
25 0 0
26 0 0
27 0 0
28 0 0
29 0 0
30 0 0
31 0 0
32 0 0
33 0 0
34 0 0
35 0 0
36 0 0
37 0 0
38 0 0
39 0 0
40 0 0
41 0 0
42 0 0
43 0 0
44 0 0
45 0 0
46 0 0
47 0 0
48 0 0
49 0 0
0 1 0
1 1 0
2 1 0
3 1 0
4 1 0
5 1 0
6 1 0
7 1 0
8 1 0
9 1 0
10 1 0
11 1 0
12 1 0
13 1 0
14 1 0
15 1 0
16 1 0
17 1 0
18 1 0
19 1 0
20 1 0
21 1 0
22 1 0
23 1 0
24 1 0
25 1 0
26 1 0
27 1 0
28 1 0
29 1 0
30 1 0
31 1 0
32 1 0
33 1 0
34 1 0
35 1 0
36 1 0
37 1 0
38 1 0
39 1 0
40 1 0
41 1 0
42 1 0
43 1 0
44 1 0
45 1 0
46 1 0
47 1 0
48 1 0
49 1 0
0 2 0
1 2 0
2 2 0
3 2 0
4 2 0
5 2 0
6 2 0
7 2 0
8 2 0
9 2 0
10 2 0
11 2 0
12 2 0
13 2 0
14 2 0
15 2 0
16 2 0
17 2 0
18 2 0
19 2 0
20 2 0
21 2 0
22 2 0
23 2 0
24 2 0
25 2 0
26 2 0
27 2 0
28 2 0
29 2 0
30 2 0
31 2 0
32 2 0
33 2 0
34 2 0
35 2 0
36 2 0
37 2 0
38 2 0
39 2 0
40 2 0
41 2 0
42 2 0
43 2 0
44 2 0
45 2 0
46 2 0
47 2 0
48 2 0
49 2 0
0 3 0
1 3 0
2 3 0
3 3 0
4 3 0
5 3 0
6 3 0
7 3 0
8 3 0
9 3 0
10 3 0
11 3 0
12 3 0
13 3 0
14 3 0
15 3 0
16 3 0
17 3 0
18 3 0
19 3 0
20 3 0
21 3 0
22 3 0
23 3 0
24 3 0
25 3 0
26 3 0
27 3 0
28 3 0
29 3 0
30 3 0
31 3 0
32 3 0
33 3 0
34 3 0
35 3 0
36 3 0
37 3 0
38 3 0
39 3 0
40 3 0
41 3 0
42 3 0
43 3 0
44 3 0
45 3 0
46 3 0
47 3 0
48 3 0
49 3 0
0 4 0
1 4 0
2 4 0
3 4 0
4 4 0
5 4 0
6 4 0
7 4 0
8 4 0
9 4 0
10 4 0
11 4 0
12 4 0
13 4 0
14 4 0
15 4 0
16 4 0
17 4 0
18 4 0
19 4 0
20 4 0
21 4 0
22 4 0
23 4 0
24 4 0
25 4 0
26 4 0
27 4 0
28 4 0
29 4 0
30 4 0
31 4 0
32 4 0
33 4 0
34 4 0
35 4 0
36 4 0
37 4 0
38 4 0
39 4 0
40 4 0
41 4 0
42 4 0
43 4 0
44 4 0
45 4 0
46 4 0
47 4 0
48 4 0
49 4 0
0 5 0
1 5 0
2 5 0
3 5 0
4 5 0
5 5 0
6 5 0
7 5 0
8 5 0
9 5 0
10 5 0
11 5 0
12 5 0
13 5 0
14 5 0
15 5 0
16 5 0
17 5 0
18 5 0
19 5 0
20 5 0
21 5 0
22 5 0
23 5 0
24 5 0
25 5 0
26 5 0
27 5 0
28 5 0
29 5 0
30 5 0
31 5 0
32 5 0
33 5 0
34 5 0
35 5 0
36 5 0
37 5 0
38 5 0
39 5 0
40 5 0
41 5 0
42 5 0
43 5 0
44 5 0
45 5 0
46 5 0
47 5 0
48 5 0
49 5 0
0 6 0
1 6 0
2 6 0
3 6 0
4 6 0
5 6 0
6 6 0
7 6 0
8 6 0
9 6 0
10 6 0
11 6 0
12 6 0
13 6 0
14 6 0
15 6 0
16 6 0
17 6 0
18 6 0
19 6 0
20 6 0
21 6 0
22 6 0
23 6 0
24 6 0
25 6 0
26 6 0
27 6 0
28 6 0
29 6 0
30 6 0
31 6 0
32 6 0
33 6 0
34 6 0
35 6 0
36 6 0
37 6 0
38 6 0
39 6 0
40 6 0
41 6 0
42 6 0
43 6 0
44 6 0
45 6 0
46 6 0
47 6 0
48 6 0
49 6 0
0 7 0
1 7 0
2 7 0
3 7 0
4 7 0
5 7 0
6 7 0
7 7 0
8 7 0
9 7 0
10 7 0
11 7 0
12 7 0
13 7 0
14 7 0
15 7 0
16 7 0
17 7 0
18 7 0
19 7 0
20 7 0
21 7 0
22 7 0
23 7 0
24 7 0
25 7 0
26 7 0
27 7 0
28 7 0
29 7 0
30 7 0
31 7 0
32 7 0
33 7 0
34 7 0
35 7 0
36 7 0
37 7 0
38 7 0
39 7 0
40 7 0
41 7 0
42 7 0
43 7 0
44 7 0
45 7 0
46 7 0
47 7 0
48 7 0
49 7 0
0 8 0
1 8 0
2 8 0
3 8 0
4 8 0
5 8 0
6 8 0
7 8 0
8 8 0
9 8 0
10 8 0
11 8 0
12 8 0
13 8 0
14 8 0
15 8 0
16 8 0
17 8 0
18 8 0
19 8 0
20 8 0
21 8 0
22 8 0
23 8 0
24 8 0
25 8 0
26 8 0
27 8 0
28 8 0
29 8 0
30 8 0
31 8 0
32 8 0
33 8 0
34 8 0
35 8 0
36 8 0
37 8 0
38 8 0
39 8 0
40 8 0
41 8 0
42 8 0
43 8 0
44 8 0
45 8 0
46 8 0
47 8 0
48 8 0
49 8 0
0 9 0
1 9 0
2 9 0
3 9 0
4 9 0
5 9 0
6 9 0
7 9 0
8 9 0
9 9 0
10 9 0
11 9 0
12 9 0
13 9 0
14 9 0
15 9 0
16 9 0
17 9 0
18 9 0
19 9 0
20 9 0
21 9 0
22 9 0
23 9 0
24 9 0
25 9 0
26 9 0
27 9 0
28 9 0
29 9 0
30 9 0
31 9 0
32 9 0
33 9 0
34 9 0
35 9 0
36 9 0
37 9 0
38 9 0
39 9 0
40 9 0
41 9 0
42 9 0
43 9 0
44 9 0
45 9 0
46 9 0
47 9 0
48 9 0
49 9 0
0 0 1
1 0 1
2 0 1
3 0 1
4 0 1
5 0 1
6 0 1
7 0 1
8 0 1
9 0 1
10 0 1
11 0 1
12 0 1
13 0 1
14 0 1
15 0 1
16 0 1
17 0 1
18 0 1
19 0 1
20 0 1
21 0 1
22 0 1
23 0 1
24 0 1
25 0 1
26 0 1
27 0 1
28 0 1
29 0 1
30 0 1
31 0 1
32 0 1
33 0 1
34 0 1
35 0 1
36 0 1
37 0 1
38 0 1
39 0 1
40 0 1
41 0 1
42 0 1
43 0 1
44 0 1
45 0 1
46 0 1
47 0 1
48 0 1
49 0 1
0 1 1
1 1 1
2 1 1
3 1 1
4 1 1
5 1 1
6 1 1
7 1 1
8 1 1
9 1 1
10 1 1
11 1 1
12 1 1
13 1 1
14 1 1
15 1 1
16 1 1
17 1 1
18 1 1
19 1 1
20 1 1
21 1 1
22 1 1
23 1 1
24 1 1
25 1 1
26 1 1
27 1 1
28 1 1
29 1 1
30 1 1
31 1 1
32 1 1
33 1 1
34 1 1
35 1 1
36 1 1
37 1 1
38 1 1
39 1 1
40 1 1
41 1 1
42 1 1
43 1 1
44 1 1
45 1 1
46 1 1
47 1 1
48 1 1
49 1 1
0 2 1
1 2 1
2 2 1
3 2 1
4 2 1
5 2 1
6 2 1
7 2 1
8 2 1
9 2 1
10 2 1
11 2 1
12 2 1
13 2 1
14 2 1
15 2 1
16 2 1
17 2 1
18 2 1
19 2 1
20 2 1
21 2 1
22 2 1
23 2 1
24 2 1
25 2 1
26 2 1
27 2 1
28 2 1
29 2 1
30 2 1
31 2 1
32 2 1
33 2 1
34 2 1
35 2 1
36 2 1
37 2 1
38 2 1
39 2 1
40 2 1
41 2 1
42 2 1
43 2 1
44 2 1
45 2 1
46 2 1
47 2 1
48 2 1
49 2 1
0 3 1
1 3 1
2 3 1
3 3 1
4 3 1
5 3 1
6 3 1
7 3 1
8 3 1
9 3 1
10 3 1
11 3 1
12 3 1
13 3 1
14 3 1
15 3 1
16 3 1
17 3 1
18 3 1
19 3 1
20 3 1
21 3 1
22 3 1
23 3 1
24 3 1
25 3 1
26 3 1
27 3 1
28 3 1
29 3 1
30 3 1
31 3 1
32 3 1
33 3 1
34 3 1
35 3 1
36 3 1
37 3 1
38 3 1
39 3 1
40 3 1
41 3 1
42 3 1
43 3 1
44 3 1
45 3 1
46 3 1
47 3 1
48 3 1
49 3 1
0 4 1
1 4 1
2 4 1
3 4 1
4 4 1
5 4 1
6 4 1
7 4 1
8 4 1
9 4 1
10 4 1
11 4 1
12 4 1
13 4 1
14 4 1
15 4 1
16 4 1
17 4 1
18 4 1
19 4 1
20 4 1
21 4 1
22 4 1
23 4 1
24 4 1
25 4 1
26 4 1
27 4 1
28 4 1
29 4 1
30 4 1
31 4 1
32 4 1
33 4 1
34 4 1
35 4 1
36 4 1
37 4 1
38 4 1
39 4 1
40 4 1
41 4 1
42 4 1
43 4 1
44 4 1
45 4 1
46 4 1
47 4 1
48 4 1
49 4 1
0 5 1
1 5 1
2 5 1
3 5 1
4 5 1
5 5 1
6 5 1
7 5 1
8 5 1
9 5 1
10 5 1
11 5 1
12 5 1
13 5 1
14 5 1
15 5 1
16 5 1
17 5 1
18 5 1
19 5 1
20 5 1
21 5 1
22 5 1
23 5 1
24 5 1
25 5 1
26 5 1
27 5 1
28 5 1
29 5 1
30 5 1
31 5 1
32 5 1
33 5 1
34 5 1
35 5 1
36 5 1
37 5 1
38 5 1
39 5 1
40 5 1
41 5 1
42 5 1
43 5 1
44 5 1
45 5 1
46 5 1
47 5 1
48 5 1
49 5 1
0 6 1
1 6 1
2 6 1
3 6 1
4 6 1
5 6 1
6 6 1
7 6 1
8 6 1
9 6 1
10 6 1
11 6 1
12 6 1
13 6 1
14 6 1
15 6 1
16 6 1
17 6 1
18 6 1
19 6 1
20 6 1
21 6 1
22 6 1
23 6 1
24 6 1
25 6 1
26 6 1
27 6 1
28 6 1
29 6 1
30 6 1
31 6 1
32 6 1
33 6 1
34 6 1
35 6 1
36 6 1
37 6 1
38 6 1
39 6 1
40 6 1
41 6 1
42 6 1
43 6 1
44 6 1
45 6 1
46 6 1
47 6 1
48 6 1
49 6 1
0 7 1
1 7 1
2 7 1
3 7 1
4 7 1
5 7 1
6 7 1
7 7 1
8 7 1
9 7 1
10 7 1
11 7 1
12 7 1
13 7 1
14 7 1
15 7 1
16 7 1
17 7 1
18 7 1
19 7 1
20 7 1
21 7 1
22 7 1
23 7 1
24 7 1
25 7 1
26 7 1
27 7 1
28 7 1
29 7 1
30 7 1
31 7 1
32 7 1
33 7 1
34 7 1
35 7 1
36 7 1
37 7 1
38 7 1
39 7 1
40 7 1
41 7 1
42 7 1
43 7 1
44 7 1
45 7 1
46 7 1
47 7 1
48 7 1
49 7 1
0 8 1
1 8 1
2 8 1
3 8 1
4 8 1
5 8 1
6 8 1
7 8 1
8 8 1
9 8 1
10 8 1
11 8 1
12 8 1
13 8 1
14 8 1
15 8 1
16 8 1
17 8 1
18 8 1
19 8 1
20 8 1
21 8 1
22 8 1
23 8 1
24 8 1
25 8 1
26 8 1
27 8 1
28 8 1
29 8 1
30 8 1
31 8 1
32 8 1
33 8 1
34 8 1
35 8 1
36 8 1
37 8 1
38 8 1
39 8 1
40 8 1
41 8 1
42 8 1
43 8 1
44 8 1
45 8 1
46 8 1
47 8 1
48 8 1
49 8 1
0 9 1
1 9 1
2 9 1
3 9 1
4 9 1
5 9 1
6 9 1
7 9 1
8 9 1
9 9 1
10 9 1
11 9 1
12 9 1
13 9 1
14 9 1
15 9 1
16 9 1
17 9 1
18 9 1
19 9 1
20 9 1
21 9 1
22 9 1
23 9 1
24 9 1
25 9 1
26 9 1
27 9 1
28 9 1
29 9 1
30 9 1
31 9 1
32 9 1
33 9 1
34 9 1
35 9 1
36 9 1
37 9 1
38 9 1
39 9 1
40 9 1
41 9 1
42 9 1
43 9 1
44 9 1
45 9 1
46 9 1
47 9 1
48 9 1
49 9 1
0 0 2
1 0 2
2 0 2
3 0 2
4 0 2
5 0 2
6 0 2
7 0 2
8 0 2
9 0 2
10 0 2
11 0 2
12 0 2
13 0 2
14 0 2
15 0 2
16 0 2
17 0 2
18 0 2
19 0 2
20 0 2
21 0 2
22 0 2
23 0 2
24 0 2
25 0 2
26 0 2
27 0 2
28 0 2
29 0 2
30 0 2
31 0 2
32 0 2
33 0 2
34 0 2
35 0 2
36 0 2
37 0 2
38 0 2
39 0 2
40 0 2
41 0 2
42 0 2
43 0 2
44 0 2
45 0 2
46 0 2
47 0 2
48 0 2
49 0 2
0 1 2
1 1 2
2 1 2
3 1 2
4 1 2
5 1 2
6 1 2
7 1 2
8 1 2
9 1 2
10 1 2
11 1 2
12 1 2
13 1 2
14 1 2
15 1 2
16 1 2
17 1 2
18 1 2
19 1 2
20 1 2
21 1 2
22 1 2
23 1 2
24 1 2
25 1 2
26 1 2
27 1 2
28 1 2
29 1 2
30 1 2
31 1 2
32 1 2
33 1 2
34 1 2
35 1 2
36 1 2
37 1 2
38 1 2
39 1 2
40 1 2
41 1 2
42 1 2
43 1 2
44 1 2
45 1 2
46 1 2
47 1 2
48 1 2
49 1 2
0 2 2
1 2 2
2 2 2
3 2 2
4 2 2
5 2 2
6 2 2
7 2 2
8 2 2
9 2 2
10 2 2
11 2 2
12 2 2
13 2 2
14 2 2
15 2 2
16 2 2
17 2 2
18 2 2
19 2 2
20 2 2
21 2 2
22 2 2
23 2 2
24 2 2
25 2 2
26 2 2
27 2 2
28 2 2
29 2 2
30 2 2
31 2 2
32 2 2
33 2 2
34 2 2
35 2 2
36 2 2
37 2 2
38 2 2
39 2 2
40 2 2
41 2 2
42 2 2
43 2 2
44 2 2
45 2 2
46 2 2
47 2 2
48 2 2
49 2 2
0 3 2
1 3 2
2 3 2
3 3 2
4 3 2
5 3 2
6 3 2
7 3 2
8 3 2
9 3 2
10 3 2
11 3 2
12 3 2
13 3 2
14 3 2
15 3 2
16 3 2
17 3 2
18 3 2
19 3 2
20 3 2
21 3 2
22 3 2
23 3 2
24 3 2
25 3 2
26 3 2
27 3 2
28 3 2
29 3 2
30 3 2
31 3 2
32 3 2
33 3 2
34 3 2
35 3 2
36 3 2
37 3 2
38 3 2
39 3 2
40 3 2
41 3 2
42 3 2
43 3 2
44 3 2
45 3 2
46 3 2
47 3 2
48 3 2
49 3 2
0 4 2
1 4 2
2 4 2
3 4 2
4 4 2
5 4 2
6 4 2
7 4 2
8 4 2
9 4 2
10 4 2
11 4 2
12 4 2
13 4 2
14 4 2
15 4 2
16 4 2
17 4 2
18 4 2
19 4 2
20 4 2
21 4 2
22 4 2
23 4 2
24 4 2
25 4 2
26 4 2
27 4 2
28 4 2
29 4 2
30 4 2
31 4 2
32 4 2
33 4 2
34 4 2
35 4 2
36 4 2
37 4 2
38 4 2
39 4 2
40 4 2
41 4 2
42 4 2
43 4 2
44 4 2
45 4 2
46 4 2
47 4 2
48 4 2
49 4 2
0 5 2
1 5 2
2 5 2
3 5 2
4 5 2
5 5 2
6 5 2
7 5 2
8 5 2
9 5 2
10 5 2
11 5 2
12 5 2
13 5 2
14 5 2
15 5 2
16 5 2
17 5 2
18 5 2
19 5 2
20 5 2
21 5 2
22 5 2
23 5 2
24 5 2
25 5 2
26 5 2
27 5 2
28 5 2
29 5 2
30 5 2
31 5 2
32 5 2
33 5 2
34 5 2
35 5 2
36 5 2
37 5 2
38 5 2
39 5 2
40 5 2
41 5 2
42 5 2
43 5 2
44 5 2
45 5 2
46 5 2
47 5 2
48 5 2
49 5 2
0 6 2
1 6 2
2 6 2
3 6 2
4 6 2
5 6 2
6 6 2
7 6 2
8 6 2
9 6 2
10 6 2
11 6 2
12 6 2
13 6 2
14 6 2
15 6 2
16 6 2
17 6 2
18 6 2
19 6 2
20 6 2
21 6 2
22 6 2
23 6 2
24 6 2
25 6 2
26 6 2
27 6 2
28 6 2
29 6 2
30 6 2
31 6 2
32 6 2
33 6 2
34 6 2
35 6 2
36 6 2
37 6 2
38 6 2
39 6 2
40 6 2
41 6 2
42 6 2
43 6 2
44 6 2
45 6 2
46 6 2
47 6 2
48 6 2
49 6 2
0 7 2
1 7 2
2 7 2
3 7 2
4 7 2
5 7 2
6 7 2
7 7 2
8 7 2
9 7 2
10 7 2
11 7 2
12 7 2
13 7 2
14 7 2
15 7 2
16 7 2
17 7 2
18 7 2
19 7 2
20 7 2
21 7 2
22 7 2
23 7 2
24 7 2
25 7 2
26 7 2
27 7 2
28 7 2
29 7 2
30 7 2
31 7 2
32 7 2
33 7 2
34 7 2
35 7 2
36 7 2
37 7 2
38 7 2
39 7 2
40 7 2
41 7 2
42 7 2
43 7 2
44 7 2
45 7 2
46 7 2
47 7 2
48 7 2
49 7 2
0 8 2
1 8 2
2 8 2
3 8 2
4 8 2
5 8 2
6 8 2
7 8 2
8 8 2
9 8 2
10 8 2
11 8 2
12 8 2
13 8 2
14 8 2
15 8 2
16 8 2
17 8 2
18 8 2
19 8 2
20 8 2
21 8 2
22 8 2
23 8 2
24 8 2
25 8 2
26 8 2
27 8 2
28 8 2
29 8 2
30 8 2
31 8 2
32 8 2
33 8 2
34 8 2
35 8 2
36 8 2
37 8 2
38 8 2
39 8 2
40 8 2
41 8 2
42 8 2
43 8 2
44 8 2
45 8 2
46 8 2
47 8 2
48 8 2
49 8 2
0 9 2
1 9 2
2 9 2
3 9 2
4 9 2
[...]
POINT_DATA 15000
SCALARS sol381 float
LOOKUP_TABLE default
58.4449
58.4418
58.4388
58.4357
58.4327
58.4296
58.4266
58.4235
58.4205
58.4175
58.4144
58.4114
58.4083
58.4053
58.4022
58.3992
58.3961
58.3931
58.3901
58.387
58.384
58.3809
58.3779
58.3749
58.3718
58.3688
58.3657
58.3627
58.3597
58.3566
58.3536
58.3506
58.3475
58.3445
58.3414
58.3384
58.3354
58.3323
58.3293
58.3263
58.3232
58.3202
58.3172
58.3141
58.3111
58.3081
58.3051
58.302
58.299
58.296
58.2929
58.2899
58.2869
58.2839
58.2808
58.2778
58.2748
58.2717
58.2687
58.2657
58.2627
58.2596
58.2566
58.2536
58.2506
58.2476
58.2445
58.2415
58.2385
58.2355
58.2324
58.2294
58.2264
58.2234
58.2204
58.2173
58.2143
58.2113
58.2083
58.2053
58.2023
58.1992
58.1962
58.1932
58.1902
58.1872
58.1842
58.1811
58.1781
58.1751
58.1721
58.1691
58.1661
58.1631
58.1601
58.1571
58.154
58.151
58.148
58.145
58.142
58.139
58.136
58.133
58.13
58.127
58.124
58.121
58.1179
58.1149
58.1119
58.1089
58.1059
58.1029
58.0999
58.0969
58.0939
58.0909
58.0879
58.0849
58.0819
58.0789
58.0759
58.0729
58.0699
58.0669
58.0639
58.0609
58.0579
58.0549
58.0519
58.0489
58.0459
58.0429
58.0399
58.0369
58.034
58.031
58.028
58.025
58.022
58.019
58.016
58.013
58.01
58.007
58.004
58.001
57.9981
57.9951
57.9921
57.9891
57.9861
57.9831
57.9801
57.9771
57.9741
57.9712
57.9682
57.9652
57.9622
57.9592
57.9562
57.9533
57.9503
57.9473
57.9443
57.9413
57.9383
57.9354
57.9324
57.9294
57.9264
57.9234
57.9205
57.9175
57.9145
57.9115
57.9086
57.9056
57.9026
57.8996
57.8966
57.8937
57.8907
57.8877
57.8847
57.8818
57.8788
57.8758
57.8729
57.8699
57.8669
57.8639
57.861
57.858
57.855
57.8521
57.8491
57.8461
57.8431
57.8402
57.8372
57.8342
57.8313
57.8283
57.8253
57.8224
57.8194
57.8164
57.8135
57.8105
57.8076
57.8046
57.8016
57.7987
57.7957
57.7927
57.7898
57.7868
57.7839
57.7809
57.7779
57.775
57.772
57.7691
57.7661
57.7631
57.7602
57.7572
57.7543
57.7513
57.7484
57.7454
57.7424
57.7395
57.7365
57.7336
57.7306
57.7277
57.7247
57.7218
57.7188
57.7159
57.7129
57.71
57.707
57.7041
57.7011
57.6982
57.6952
57.6923
57.6893
57.6864
57.6834
57.6805
57.6775
57.6746
57.6716
57.6687
57.6657
57.6628
57.6599
57.6569
57.654
57.651
57.6481
57.6451
57.6422
57.6393
57.6363
57.6334
57.6304
57.6275
57.6246
57.6216
57.6187
57.6157
57.6128
57.6099
57.6069
57.604
57.6011
57.5981
57.5952
57.5923
57.5893
57.5864
57.5835
57.5805
57.5776
57.5747
57.5717
57.5688
57.5659
57.5629
57.56
57.5571
57.5541
57.5512
57.5483
57.5453
57.5424
57.5395
57.5366
57.5336
57.5307
57.5278
57.5249
57.5219
57.519
57.5161
57.5132
57.5102
57.5073
57.5044
57.5015
57.4985
57.4956
57.4927
57.4898
57.4869
57.4839
57.481
57.4781
57.4752
57.4723
57.4693
57.4664
57.4635
57.4606
57.4577
57.4548
57.4518
57.4489
57.446
57.4431
57.4402
57.4373
57.4344
57.4314
57.4285
57.4256
57.4227
57.4198
57.4169
57.414
57.4111
57.4081
57.4052
57.4023
57.3994
57.3965
57.3936
57.3907
57.3878
57.3849
57.382
57.3791
57.3762
57.3733
57.3704
57.3674
57.3645
57.3616
57.3587
57.3558
57.3529
57.35
57.3471
57.3442
57.3413
57.3384
57.3355
57.3326
57.3297
57.3268
57.3239
57.321
57.3181
57.3152
57.3123
57.3094
57.3065
57.3036
57.3007
57.2979
57.295
57.2921
57.2892
57.2863
57.2834
57.2805
57.2776
57.2747
57.2718
57.2689
57.266
57.2631
57.2603
57.2574
57.2545
57.2516
57.2487
57.2458
57.2429
57.24
57.2371
57.2343
57.2314
57.2285
57.2256
57.2227
57.2198
57.217
57.2141
57.2112
57.2083
57.2054
57.2025
57.1997
57.1968
57.1939
57.191
57.1881
57.1853
57.1824
57.1795
57.1766
57.1737
57.1709
57.168
57.1651
57.1622
57.1594
57.1565
57.1536
57.1507
57.1478
57.145
57.1421
57.1392
57.1364
57.1335
57.1306
57.1277
57.1249
57.122
57.1191
57.1163
57.1134
57.1105
57.1076
57.1048
57.1019
57.099
57.0962
57.0933
57.0904
57.0876
57.0847
57.0818
57.079
57.0761
57.0732
57.0704
57.0675
57.0647
57.0618
57.0589
57.0561
57.0532
57.0503
57.0475
57.0446
57.0418
57.0389
57.036
57.0332
57.0303
57.0275
57.0246
57.0217
57.0189
57.016
57.0132
57.0103
57.0075
57.0046
57.0018
56.9989
56.996
56.9932
56.9903
56.9875
56.9846
56.9818
56.9789
56.9761
56.9732
56.9704
56.9675
56.9647
56.9618
56.959
56.9561
56.9533
56.9504
56.9476
56.9447
56.9419
56.939
56.9362
56.9334
56.9305
56.9277
56.9248
56.922
56.9191
56.9163
56.9135
56.9106
56.9078
56.9049
56.9021
56.8992
56.8964
56.8936
56.8907
56.8879
56.885
56.8822
56.8794
56.8765
56.8737
56.8709
56.868
56.8652
56.8623
56.8595
56.8567
56.8538
56.851
56.8482
56.8453
56.8425
56.8397
56.8368
56.834
56.8312
56.8283
56.8255
56.8227
56.8199
56.817
56.8142
56.8114
56.8085
56.8057
56.8029
56.8001
56.7972
56.7944
56.7916
56.7888
56.7859
56.7831
56.7803
56.7775
56.7746
56.7718
56.769
56.7662
56.7633
56.7605
56.7577
56.7549
56.7521
56.7492
56.7464
56.7436
56.7408
56.738
56.7351
56.7323
56.7295
56.7267
56.7239
56.7211
56.7182
56.7154
56.7126
56.7098
56.707
56.7042
56.7014
56.6985
56.6957
56.6929
56.6901
56.6873
56.6845
56.6817
56.6789
56.676
56.6732
56.6704
56.6676
56.6648
56.662
56.6592
56.6564
56.6536
56.6508
56.648
56.6452
56.6424
56.6396
56.6367
56.6339
56.6311
56.6283
56.6255
56.6227
56.6199
56.6171
56.6143
56.6115
56.6087
56.6059
56.6031
56.6003
56.5975
56.5947
56.5919
56.5891
56.5863
56.5835
56.5807
56.5779
56.5751
56.5723
56.5695
56.5668
56.564
56.5612
56.5584
56.5556
56.5528
56.55
56.5472
56.5444
56.5416
56.5388
56.536
56.5332
56.5305
56.5277
56.5249
56.5221
56.5193
56.5165
56.5137
56.5109
56.5081
56.5054
56.5026
56.4998
56.497
56.4942
56.4914
56.4886
56.4859
56.4831
56.4803
56.4775
56.4747
56.4719
56.4692
56.4664
56.4636
56.4608
56.458
56.4553
56.4525
56.4497
56.4469
56.4441
56.4414
56.4386
56.4358
56.433
56.4303
56.4275
56.4247
56.4219
56.4192
56.4164
56.4136
56.4108
56.4081
56.4053
56.4025
56.3998
56.397
56.3942
56.3914
56.3887
56.3859
56.3831
56.3804
56.3776
56.3748
56.3721
56.3693
56.3665
56.3637
56.361
56.3582
56.3554
56.3527
56.3499
56.3472
56.3444
56.3416
56.3389
56.3361
56.3333
56.3306
56.3278
56.3251
56.3223
56.3195
56.3168
56.314
56.3112
56.3085
56.3057
56.303
56.3002
56.2975
56.2947
56.2919
56.2892
56.2864
56.2837
56.2809
56.2782
56.2754
56.2727
56.2699
56.2671
56.2644
56.2616
56.2589
56.2561
56.2534
56.2506
56.2479
56.2451
56.2424
56.2396
56.2369
56.2341
56.2314
56.2286
56.2259
56.2231
56.2204
56.2176
56.2149
56.2122
56.2094
56.2067
56.2039
56.2012
56.1984
56.1957
56.1929
56.1902
56.1875
56.1847
56.182
56.1792
56.1765
56.1737
56.171
56.1683
56.1655
56.1628
56.16
56.1573
56.1546
56.1518
56.1491
56.1464
56.1436
56.1409
56.1382
56.1354
56.1327
56.1299
56.1272
56.1245
56.1217
56.119
56.1163
56.1135
56.1108
56.1081
56.1054
56.1026
56.0999
56.0972
56.0944
56.0917
56.089
56.0862
56.0835
56.0808
56.0781
56.0753
56.0726
56.0699
56.0672
56.0644
56.0617
56.059
56.0563
56.0535
56.0508
56.0481
56.0454
56.0426
56.0399
56.0372
56.0345
56.0318
56.029
56.0263
56.0236
56.0209
56.0182
56.0154
56.0127
56.01
56.0073
56.0046
56.0019
55.9991
55.9964
55.9937
55.991
55.9883
55.9856
55.9828
55.9801
55.9774
55.9747
55.972
55.9693
55.9666
55.9639
55.9611
55.9584
55.9557
55.953
55.9503
55.9476
55.9449
55.9422
55.9395
55.9368
55.9341
55.9314
55.9286
55.9259
55.9232
55.9205
55.9178
55.9151
55.9124
55.9097
55.907
55.9043
55.9016
55.8989
55.8962
55.8935
55.8908
55.8881
55.8854
55.8827
55.88
55.8773
55.8746
55.8719
55.8692
55.8665
55.8638
55.8611
55.8584
55.8557
55.853
55.8503
55.8476
55.8449
55.8422
55.8395
55.8368
55.8342
55.8315
55.8288
55.8261
55.8234
55.8207
55.818
55.8153
55.8126
55.8099
55.8072
55.8046
55.8019
55.7992
55.7965
55.7938
55.7911
55.7884
55.7857
55.7831
55.7804
55.7777
55.775
55.7723
55.7696
55.7669
55.7643
55.7616
55.7589
55.7562
55.7535
55.7509
55.7482
55.7455
55.7428
55.7401
55.7375
55.7348
55.7321
55.7294
55.7267
55.7241
55.7214
55.7187
55.716
55.7134
55.7107
55.708
55.7053
55.7026
55.7
55.6973
55.6946
55.692
55.6893
55.6866
55.6839
55.6813
55.6786
55.6759
55.6733
55.6706
55.6679
55.6652
55.6626
55.6599
55.6572
55.6546
55.6519
55.6492
55.6466
55.6439
55.6412
55.6386
55.6359
55.6332
55.6306
55.6279
55.6252
55.6226
55.6199
55.6173
55.6146
55.6119
55.6093
55.6066
55.6039
55.6013
55.5986
55.596
55.5933
55.5906
55.588
55.5853
55.5827
55.58
55.5774
55.5747
55.572
55.5694
55.5667
55.5641
55.5614
55.5588
55.5561
55.5535
55.5508
55.5482
55.5455
55.5429
55.5402
55.5375
55.5349
55.5322
55.5296
55.5269
55.5243
55.5216
55.519
55.5163
55.5137
55.5111
55.5084
55.5058
55.5031
55.5005
55.4978
55.4952
55.4925
55.4899
55.4872
55.4846
55.482
55.4793
55.4767
55.474
55.4714
55.4687
55.4661
55.4635
55.4608
55.4582
55.4555
55.4529
55.4503
55.4476
55.445
55.4423
55.4397
55.4371
55.4344
55.4318
55.4292
55.4265
55.4239
55.4213
55.4186
55.416
55.4134
55.4107
55.4081
55.4055
55.4028
55.4002
55.3976
55.3949
55.3923
55.3897
55.387
55.3844
55.3818
55.3791
55.3765
55.3739
55.3713
55.3686
55.366
55.3634
55.3608
55.3581
55.3555
55.3529
55.3502
55.3476
55.345
55.3424
55.3398
55.3371
55.3345
55.3319
55.3293
55.3266
55.324
55.3214
55.3188
55.3162
55.3135
55.3109
55.3083
55.3057
55.3031
55.3004
55.2978
55.2952
55.2926
55.29
55.2874
55.2847
55.2821
55.2795
55.2769
55.2743
55.2717
55.2691
55.2664
55.2638
55.2612
55.2586
55.256
55.2534
55.2508
55.2482
55.2456
55.2429
55.2403
55.2377
55.2351
55.2325
55.2299
55.2273
55.2247
55.2221
55.2195
55.2169
55.2143
55.2117
55.2091
55.2064
55.2038
55.2012
55.1986
55.196
55.1934
55.1908
55.1882
55.1856
55.183
55.1804
55.1778
55.1752
55.1726
55.17
55.1674
55.1648
55.1622
55.1596
55.157
55.1544
55.1518
55.1492
55.1466
55.1441
55.1415
55.1389
55.1363
55.1337
55.1311
55.1285
55.1259
55.1233
55.1207
55.1181
55.1155
55.1129
55.1103
55.1078
55.1052
55.1026
55.1
55.0974
55.0948
55.0922
55.0896
55.087
55.0845
55.0819
55.0793
55.0767
55.0741
55.0715
55.0689
55.0664
55.0638
55.0612
55.0586
55.056
55.0534
55.0509
55.0483
55.0457
55.0431
55.0405
55.0379
55.0354
55.0328
55.0302
55.0276
55.0251
55.0225
55.0199
55.0173
55.0147
55.0122
55.0096
55.007
55.0044
55.0019
54.9993
54.9967
54.9941
54.9916
54.989
54.9864
54.9838
54.9813
54.9787
54.9761
54.9736
54.971
54.9684
54.9658
54.9633
54.9607
54.9581
54.9556
54.953
54.9504
54.9479
54.9453
54.9427
54.9402
54.9376
54.935
54.9325
54.9299
54.9273
54.9248
54.9222
54.9196
54.9171
54.9145
54.912
54.9094
54.9068
54.9043
54.9017
54.8992
54.8966
54.894
54.8915
54.8889
54.8864
54.8838
54.8812
54.8787
54.8761
54.8736
54.871
54.8685
54.8659
54.8633
54.8608
54.8582
54.8557
54.8531
54.8506
54.848
54.8455
54.8429
54.8404
54.8378
54.8353
54.8327
54.8302
54.8276
54.8251
54.8225
54.82
54.8174
54.8149
54.8123
54.8098
54.8072
54.8047
54.8021
54.7996
54.797
54.7945
54.7919
54.7894
54.7869
54.7843
54.7818
54.7792
54.7767
54.7741
54.7716
54.7691
54.7665
54.764
54.7614
54.7589
54.7563
54.7538
54.7513
54.7487
54.7462
54.7437
54.7411
54.7386
54.736
54.7335
54.731
54.7284
54.7259
54.7234
54.7208
54.7183
54.7158
54.7132
54.7107
54.7082
54.7056
54.7031
54.7006
54.698
54.6955
54.693
54.6904
54.6879
54.6854
54.6828
54.6803
54.6778
54.6753
54.6727
54.6702
54.6677
54.6652
54.6626
54.6601
54.6576
54.655
54.6525
54.65
54.6475
54.645
54.6424
54.6399
54.6374
54.6349
54.6323
54.6298
54.6273
54.6248
54.6223
54.6197
54.6172
54.6147
54.6122
54.6097
54.6071
54.6046
54.6021
54.5996
54.5971
54.5945
54.592
54.5895
54.587
54.5845
54.582
54.5795
54.5769
54.5744
54.5719
54.5694
54.5669
54.5644
54.5619
54.5594
54.5568
54.5543
54.5518
54.5493
54.5468
54.5443
54.5418
54.5393
54.5368
54.5343
54.5318
54.5292
54.5267
54.5242
54.5217
54.5192
54.5167
54.5142
54.5117
54.5092
54.5067
54.5042
54.5017
54.4992
54.4967
54.4942
54.4917
54.4892
54.4867
54.4842
54.4817
54.4792
54.4767
54.4742
54.4717
54.4692
54.4667
54.4642
54.4617
54.4592
54.4567
54.4542
54.4517
54.4492
54.4467
54.4442
54.4417
54.4392
54.4367
54.4342
54.4318
54.4293
54.4268
54.4243
54.4218
54.4193
54.4168
54.4143
54.4118
54.4093
54.4068
54.4044
54.4019
54.3994
54.3969
54.3944
54.3919
54.3894
54.3869
54.3845
54.382
54.3795
54.377
54.3745
54.372
54.3695
54.3671
54.3646
54.3621
54.3596
54.3571
54.3546
54.3522
54.3497
54.3472
54.3447
54.3422
54.3398
54.3373
54.3348
54.3323
54.3299
54.3274
54.3249
54.3224
54.3199
54.3175
54.315
54.3125
54.31
54.3076
54.3051
54.3026
54.3001
54.2977
54.2952
54.2927
54.2903
54.2878
54.2853
54.2828
54.2804
54.2779
54.2754
54.273
54.2705
54.268
54.2655
54.2631
54.2606
54.2581
54.2557
54.2532
54.2507
54.2483
54.2458
54.2433
54.2409
54.2384
54.236
54.2335
54.231
54.2286
54.2261
54.2236
54.2212
54.2187
54.2163
54.2138
54.2113
54.2089
54.2064
54.2039
54.2015
54.199
54.1966
54.1941
54.1917
54.1892
54.1867
54.1843
54.1818
54.1794
54.1769
54.1745
54.172
54.1696
54.1671
54.1646
54.1622
54.1597
54.1573
54.1548
54.1524
54.1499
54.1475
54.145
54.1426
54.1401
54.1377
54.1352
54.1328
54.1303
54.1279
54.1254
54.123
54.1205
54.1181
54.1156
54.1132
54.1107
54.1083
54.1059
54.1034
54.101
54.0985
54.0961
54.0936
54.0912
54.0888
54.0863
54.0839
54.0814
54.079
54.0765
54.0741
54.0717
54.0692
54.0668
54.0643
54.0619
54.0595
54.057
54.0546
54.0522
54.0497
54.0473
54.0448
54.0424
54.04
54.0375
54.0351
54.0327
54.0302
54.0278
54.0254
54.0229
54.0205
54.0181
54.0156
54.0132
54.0108
54.0083
54.0059
54.0035
54.001
53.9986
53.9962
53.9938
53.9913
53.9889
53.9865
53.9841
53.9816
53.9792
53.9768
53.9743
53.9719
53.9695
53.9671
53.9646
53.9622
53.9598
53.9574
53.955
53.9525
53.9501
53.9477
53.9453
53.9428
53.9404
53.938
53.9356
53.9332
53.9307
53.9283
53.9259
53.9235
53.9211
53.9186
53.9162
53.9138
53.9114
53.909
53.9066
53.9041
53.9017
53.8993
53.8969
53.8945
53.8921
53.8897
53.8873
53.8848
53.8824
53.88
53.8776
53.8752
53.8728
53.8704
53.868
53.8655
53.8631
53.8607
53.8583
53.8559
53.8535
53.8511
53.8487
53.8463
53.8439
53.8415
53.8391
53.8367
53.8343
53.8318
53.8294
53.827
53.8246
53.8222
53.8198
53.8174
53.815
53.8126
53.8102
53.8078
53.8054
53.803
53.8006
53.7982
53.7958
53.7934
53.791
53.7886
53.7862
53.7838
53.7814
53.779
53.7766
53.7742
53.7718
53.7694
53.7671
53.7647
53.7623
53.7599
53.7575
53.7551
53.7527
53.7503
53.7479
53.7455
53.7431
53.7407
53.7383
53.7359
53.7336
53.7312
53.7288
53.7264
53.724
53.7216
53.7192
53.7168
53.7144
53.7121
53.7097
53.7073
53.7049
53.7025
53.7001
53.6977
53.6954
53.693
53.6906
53.6882
53.6858
53.6834
53.6811
53.6787
53.6763
53.6739
53.6715
53.6692
53.6668
53.6644
53.662
53.6596
53.6573
53.6549
53.6525
53.6501
53.6477
53.6454
53.643
53.6406
53.6382
53.6359
53.6335
53.6311
53.6287
53.6264
53.624
53.6216
53.6192
53.6169
53.6145
53.6121
53.6098
53.6074
53.605
53.6026
53.6003
53.5979
53.5955
53.5932
53.5908
53.5884
53.5861
53.5837
53.5813
53.579
53.5766
53.5742
53.5719
53.5695
53.5671
53.5648
53.5624
53.56
53.5577
53.5553
53.5529
53.5506
53.5482
53.5459
53.5435
53.5411
53.5388
53.5364
53.534
53.5317
53.5293
53.527
53.5246
53.5222
53.5199
53.5175
53.5152
53.5128
53.5105
53.5081
53.5057
53.5034
53.501
53.4987
53.4963
53.494
53.4916
53.4893
53.4869
53.4846
53.4822
53.4799
53.4775
53.4751
53.4728
53.4704
53.4681
53.4657
53.4634
53.461
53.4587
53.4563
53.454
53.4517
53.4493
53.447
53.4446
53.4423
53.4399
53.4376
53.4352
53.4329
53.4305
53.4282
53.4258
53.4235
53.4212
53.4188
53.4165
53.4141
53.4118
53.4094
53.4071
53.4048
53.4024
53.4001
53.3977
53.3954
53.3931
53.3907
53.3884
53.386
53.3837
53.3814
53.379
53.3767
53.3744
53.372
53.3697
53.3674
53.365
53.3627
53.3604
53.358
53.3557
53.3534
53.351
53.3487
53.3464
53.344
53.3417
53.3394
53.337
53.3347
53.3324
53.33
53.3277
53.3254
53.3231
53.3207
53.3184
53.3161
53.3137
53.3114
53.3091
53.3068
53.3044
53.3021
53.2998
53.2975
53.2951
53.2928
53.2905
53.2882
53.2858
53.2835
53.2812
53.2789
53.2765
53.2742
53.2719
53.2696
53.2673
53.2649
53.2626
53.2603
53.258
53.2557
53.2534
53.251
53.2487
53.2464
53.2441
53.2418
53.2394
53.2371
53.2348
53.2325
53.2302
53.2279
53.2256
53.2232
53.2209
53.2186
53.2163
53.214
53.2117
53.2094
53.2071
53.2047
53.2024
53.2001
53.1978
53.1955
53.1932
53.1909
53.1886
53.1863
53.184
53.1817
53.1794
53.177
53.1747
53.1724
53.1701
53.1678
53.1655
53.1632
53.1609
53.1586
53.1563
53.154
53.1517
53.1494
53.1471
53.1448
53.1425
53.1402
53.1379
53.1356
53.1333
53.131
53.1287
53.1264
53.1241
53.1218
53.1195
53.1172
53.1149
53.1126
53.1103
53.108
53.1057
53.1034
53.1011
53.0988
53.0965
53.0942
53.0919
53.0897
53.0874
53.0851
53.0828
53.0805
53.0782
53.0759
53.0736
53.0713
53.069
53.0667
53.0644
53.0622
53.0599
53.0576
53.0553
53.053
53.0507
53.0484
53.0461
53.0439
53.0416
53.0393
53.037
53.0347
53.0324
53.0301
53.0279
53.0256
53.0233
53.021
53.0187
53.0164
53.0142
53.0119
53.0096
53.0073
53.005
53.0028
53.0005
52.9982
52.9959
52.9936
52.9914
52.9891
52.9868
52.9845
52.9823
52.98
52.9777
52.9754
52.9732
52.9709
52.9686
52.9663
52.9641
52.9618
52.9595
52.9572
52.955
52.9527
52.9504
52.9481
52.9459
52.9436
52.9413
52.9391
52.9368
52.9345
52.9322
52.93
52.9277
52.9254
52.9232
52.9209
52.9186
52.9164
52.9141
52.9118
52.9096
52.9073
52.905
52.9028
52.9005
52.8983
52.896
52.8937
52.8915
52.8892
52.8869
52.8847
52.8824
52.8801
52.8779
52.8756
52.8734
52.8711
52.8688
52.8666
52.8643
52.8621
52.8598
52.8576
52.8553
52.853
52.8508
52.8485
52.8463
52.844
52.8418
52.8395
52.8372
52.835
52.8327
52.8305
52.8282
52.826
52.8237
52.8215
52.8192
52.817
52.8147
52.8125
52.8102
52.808
52.8057
52.8035
52.8012
52.799
52.7967
52.7945
52.7922
52.79
52.7877
52.7855
52.7832
52.781
52.7787
52.7765
52.7743
52.772
52.7698
52.7675
52.7653
52.763
52.7608
52.7585
52.7563
52.7541
52.7518
52.7496
52.7473
52.7451
52.7429
52.7406
52.7384
52.7361
52.7339
52.7317
52.7294
52.7272
52.7249
52.7227
52.7205
52.7182
52.716
52.7138
52.7115
52.7093
52.7071
52.7048
52.7026
52.7004
52.6981
52.6959
52.6937
52.6914
52.6892
52.687
52.6847
52.6825
52.6803
52.678
52.6758
52.6736
52.6714
52.6691
52.6669
52.6647
52.6624
52.6602
52.658
52.6558
52.6535
52.6513
52.6491
52.6469
52.6446
52.6424
52.6402
52.638
52.6357
52.6335
52.6313
52.6291
52.6268
52.6246
52.6224
52.6202
52.618
52.6157
52.6135
52.6113
52.6091
52.6069
52.6046
52.6024
52.6002
52.598
52.5958
52.5935
52.5913
52.5891
52.5869
52.5847
52.5825
52.5802
52.578
52.5758
52.5736
52.5714
52.5692
52.567
52.5647
52.5625
52.5603
52.5581
52.5559
52.5537
52.5515
52.5493
52.5471
52.5449
52.5426
52.5404
52.5382
52.536
52.5338
52.5316
52.5294
52.5272
52.525
52.5228
52.5206
52.5184
52.5162
52.514
52.5117
52.5095
52.5073
52.5051
52.5029
52.5007
52.4985
52.4963
52.4941
52.4919
52.4897
52.4875
52.4853
52.4831
52.4809
52.4787
52.4765
52.4743
52.4721
52.4699
52.4677
52.4655
52.4633
52.4611
52.4589
52.4567
52.4545
52.4524
52.4502
52.448
52.4458
52.4436
52.4414
52.4392
52.437
52.4348
52.4326
52.4304
52.4282
52.426
52.4238
52.4217
52.4195
52.4173
52.4151
52.4129
52.4107
52.4085
52.4063
52.4041
52.402
52.3998
52.3976
52.3954
52.3932
52.391
52.3888
52.3867
52.3845
52.3823
52.3801
52.3779
52.3757
52.3735
52.3714
52.3692
52.367
52.3648
52.3626
52.3605
52.3583
52.3561
52.3539
52.3517
52.3496
52.3474
52.3452
52.343
52.3408
52.3387
52.3365
52.3343
52.3321
52.33
52.3278
52.3256
52.3234
52.3213
52.3191
52.3169
52.3147
52.3126
52.3104
52.3082
52.306
52.3039
52.3017
52.2995
52.2974
52.2952
52.293
52.2908
52.2887
52.2865
52.2843
52.2822
52.28
52.2778
52.2757
52.2735
52.2713
52.2692
52.267
52.2648
52.2627
52.2605
52.2583
52.2562
52.254
52.2518
52.2497
52.2475
52.2454
52.2432
52.241
52.2389
52.2367
52.2345
52.2324
52.2302
52.2281
52.2259
52.2237
52.2216
52.2194
52.2173
52.2151
52.213
52.2108
52.2086
52.2065
52.2043
52.2022
52.2
52.1979
52.1957
52.1935
52.1914
52.1892
52.1871
52.1849
52.1828
52.1806
52.1785
52.1763
52.1742
52.172
52.1699
52.1677
52.1656
52.1634
52.1613
52.1591
52.157
52.1548
52.1527
52.1505
52.1484
52.1462
52.1441
52.1419
52.1398
52.1376
52.1355
52.1334
52.1312
52.1291
52.1269
52.1248
52.1226
52.1205
52.1183
52.1162
52.1141
52.1119
52.1098
52.1076
52.1055
52.1034
52.1012
52.0991
52.0969
52.0948
52.0927
52.0905
52.0884
52.0862
52.0841
52.082
52.0798
52.0777
52.0756
52.0734
52.0713
52.0692
52.067
52.0649
52.0627
52.0606
52.0585
52.0563
52.0542
52.0521
52.05
52.0478
52.0457
52.0436
52.0414
52.0393
52.0372
52.035
52.0329
52.0308
52.0286
52.0265
52.0244
52.0223
52.0201
52.018
52.0159
52.0138
52.0116
52.0095
52.0074
52.0053
52.0031
52.001
51.9989
51.9968
51.9946
51.9925
51.9904
51.9883
51.9861
51.984
51.9819
51.9798
51.9777
51.9755
51.9734
51.9713
51.9692
51.9671
51.9649
51.9628
51.9607
51.9586
51.9565
51.9544
51.9522