# vtk DataFile Version 2.0
vtk output
ASCII
DATASET STRUCTURED_GRID
DIMENSIONS 50 10 30
POINTS 15000 float
0 0 0
1 0 0
2 0 0
3 0 0
4 0 0
5 0 0
6 0 0
7 0 0
8 0 0
9 0 0
10 0 0
11 0 0
12 0 0
13 0 0
14 0 0
15 0 0
16 0 0
17 0 0
18 0 0
19 0 0
20 0 0
21 0 0
22 0 0
23 0 0
24 0 0
25 0 0
26 0 0
27 0 0
28 0 0
29 0 0
30 0 0
31 0 0
32 0 0
33 0 0
34 0 0
35 0 0
36 0 0
37 0 0
38 0 0
39 0 0
40 0 0
41 0 0
42 0 0
43 0 0
44 0 0
45 0 0
46 0 0
47 0 0
48 0 0
49 0 0
0 1 0
1 1 0
2 1 0
3 1 0
4 1 0
5 1 0
6 1 0
7 1 0
8 1 0
9 1 0
10 1 0
11 1 0
12 1 0
13 1 0
14 1 0
15 1 0
16 1 0
17 1 0
18 1 0
19 1 0
20 1 0
21 1 0
22 1 0
23 1 0
24 1 0
25 1 0
26 1 0
27 1 0
28 1 0
29 1 0
30 1 0
31 1 0
32 1 0
33 1 0
34 1 0
35 1 0
36 1 0
37 1 0
38 1 0
39 1 0
40 1 0
41 1 0
42 1 0
43 1 0
44 1 0
45 1 0
46 1 0
47 1 0
48 1 0
49 1 0
0 2 0
1 2 0
2 2 0
3 2 0
4 2 0
5 2 0
6 2 0
7 2 0
8 2 0
9 2 0
10 2 0
11 2 0
12 2 0
13 2 0
14 2 0
15 2 0
16 2 0
17 2 0
18 2 0
19 2 0
20 2 0
21 2 0
22 2 0
23 2 0
24 2 0
25 2 0
26 2 0
27 2 0
28 2 0
29 2 0
30 2 0
31 2 0
32 2 0
33 2 0
34 2 0
35 2 0
36 2 0
37 2 0
38 2 0
39 2 0
40 2 0
41 2 0
42 2 0
43 2 0
44 2 0
45 2 0
46 2 0
47 2 0
48 2 0
49 2 0
0 3 0
1 3 0
2 3 0
3 3 0
4 3 0
5 3 0
6 3 0
7 3 0
8 3 0
9 3 0
10 3 0
11 3 0
12 3 0
13 3 0
14 3 0
15 3 0
16 3 0
17 3 0
18 3 0
19 3 0
20 3 0
21 3 0
22 3 0
23 3 0
24 3 0
25 3 0
26 3 0
27 3 0
28 3 0
29 3 0
30 3 0
31 3 0
32 3 0
33 3 0
34 3 0
35 3 0
36 3 0
37 3 0
38 3 0
39 3 0
40 3 0
41 3 0
42 3 0
43 3 0
44 3 0
45 3 0
46 3 0
47 3 0
48 3 0
49 3 0
0 4 0
1 4 0
2 4 0
3 4 0
4 4 0
5 4 0
6 4 0
7 4 0
8 4 0
9 4 0
10 4 0
11 4 0
12 4 0
13 4 0
14 4 0
15 4 0
16 4 0
17 4 0
18 4 0
19 4 0
20 4 0
21 4 0
22 4 0
23 4 0
24 4 0
25 4 0
26 4 0
27 4 0
28 4 0
29 4 0
30 4 0
31 4 0
32 4 0
33 4 0
34 4 0
35 4 0
36 4 0
37 4 0
38 4 0
39 4 0
40 4 0
41 4 0
42 4 0
43 4 0
44 4 0
45 4 0
46 4 0
47 4 0
48 4 0
49 4 0
0 5 0
1 5 0
2 5 0
3 5 0
4 5 0
5 5 0
6 5 0
7 5 0
8 5 0
9 5 0
10 5 0
11 5 0
12 5 0
13 5 0
14 5 0
15 5 0
16 5 0
17 5 0
18 5 0
19 5 0
20 5 0
21 5 0
22 5 0
23 5 0
24 5 0
25 5 0
26 5 0
27 5 0
28 5 0
29 5 0
30 5 0
31 5 0
32 5 0
33 5 0
34 5 0
35 5 0
36 5 0
37 5 0
38 5 0
39 5 0
40 5 0
41 5 0
42 5 0
43 5 0
44 5 0
45 5 0
46 5 0
47 5 0
48 5 0
49 5 0
0 6 0
1 6 0
2 6 0
3 6 0
4 6 0
5 6 0
6 6 0
7 6 0
8 6 0
9 6 0
10 6 0
11 6 0
12 6 0
13 6 0
14 6 0
15 6 0
16 6 0
17 6 0
18 6 0
19 6 0
20 6 0
21 6 0
22 6 0
23 6 0
24 6 0
25 6 0
26 6 0
27 6 0
28 6 0
29 6 0
30 6 0
31 6 0
32 6 0
33 6 0
34 6 0
35 6 0
36 6 0
37 6 0
38 6 0
39 6 0
40 6 0
41 6 0
42 6 0
43 6 0
44 6 0
45 6 0
46 6 0
47 6 0
48 6 0
49 6 0
0 7 0
1 7 0
2 7 0
3 7 0
4 7 0
5 7 0
6 7 0
7 7 0
8 7 0
9 7 0
10 7 0
11 7 0
12 7 0
13 7 0
14 7 0
15 7 0
16 7 0
17 7 0
18 7 0
19 7 0
20 7 0
21 7 0
22 7 0
23 7 0
24 7 0
25 7 0
26 7 0
27 7 0
28 7 0
29 7 0
30 7 0
31 7 0
32 7 0
33 7 0
34 7 0
35 7 0
36 7 0
37 7 0
38 7 0
39 7 0
40 7 0
41 7 0
42 7 0
43 7 0
44 7 0
45 7 0
46 7 0
47 7 0
48 7 0
49 7 0
0 8 0
1 8 0
2 8 0
3 8 0
4 8 0
5 8 0
6 8 0
7 8 0
8 8 0
9 8 0
10 8 0
11 8 0
12 8 0
13 8 0
14 8 0
15 8 0
16 8 0
17 8 0
18 8 0
19 8 0
20 8 0
21 8 0
22 8 0
23 8 0
24 8 0
25 8 0
26 8 0
27 8 0
28 8 0
29 8 0
30 8 0
31 8 0
32 8 0
33 8 0
34 8 0
35 8 0
36 8 0
37 8 0
38 8 0
39 8 0
40 8 0
41 8 0
42 8 0
43 8 0
44 8 0
45 8 0
46 8 0
47 8 0
48 8 0
49 8 0
0 9 0
1 9 0
2 9 0
3 9 0
4 9 0
5 9 0
6 9 0
7 9 0
8 9 0
9 9 0
10 9 0
11 9 0
12 9 0
13 9 0
14 9 0
15 9 0
16 9 0
17 9 0
18 9 0
19 9 0
20 9 0
21 9 0
22 9 0
23 9 0
24 9 0
25 9 0
26 9 0
27 9 0
28 9 0
29 9 0
30 9 0
31 9 0
32 9 0
33 9 0
34 9 0
35 9 0
36 9 0
37 9 0
38 9 0
39 9 0
40 9 0
41 9 0
42 9 0
43 9 0
44 9 0
45 9 0
46 9 0
47 9 0
48 9 0
49 9 0
0 0 1
1 0 1
2 0 1
3 0 1
4 0 1
5 0 1
6 0 1
7 0 1
8 0 1
9 0 1
10 0 1
11 0 1
12 0 1
13 0 1
14 0 1
15 0 1
16 0 1
17 0 1
18 0 1
19 0 1
20 0 1
21 0 1
22 0 1
23 0 1
24 0 1
25 0 1
26 0 1
27 0 1
28 0 1
29 0 1
30 0 1
31 0 1
32 0 1
33 0 1
34 0 1
35 0 1
36 0 1
37 0 1
38 0 1
39 0 1
40 0 1
41 0 1
42 0 1
43 0 1
44 0 1
45 0 1
46 0 1
47 0 1
48 0 1
49 0 1
0 1 1
1 1 1
2 1 1
3 1 1
4 1 1
5 1 1
6 1 1
7 1 1
8 1 1
9 1 1
10 1 1
11 1 1
12 1 1
13 1 1
14 1 1
15 1 1
16 1 1
17 1 1
18 1 1
19 1 1
20 1 1
21 1 1
22 1 1
23 1 1
24 1 1
25 1 1
26 1 1
27 1 1
28 1 1
29 1 1
30 1 1
31 1 1
32 1 1
33 1 1
34 1 1
35 1 1
36 1 1
37 1 1
38 1 1
39 1 1
40 1 1
41 1 1
42 1 1
43 1 1
44 1 1
45 1 1
46 1 1
47 1 1
48 1 1
49 1 1
0 2 1
1 2 1
2 2 1
3 2 1
4 2 1
5 2 1
6 2 1
7 2 1
8 2 1
9 2 1
10 2 1
11 2 1
12 2 1
13 2 1
14 2 1
15 2 1
16 2 1
17 2 1
18 2 1
19 2 1
20 2 1
21 2 1
22 2 1
23 2 1
24 2 1
25 2 1
26 2 1
27 2 1
28 2 1
29 2 1
30 2 1
31 2 1
32 2 1
33 2 1
34 2 1
35 2 1
36 2 1
37 2 1
38 2 1
39 2 1
40 2 1
41 2 1
42 2 1
43 2 1
44 2 1
45 2 1
46 2 1
47 2 1
48 2 1
49 2 1
0 3 1
1 3 1
2 3 1
3 3 1
4 3 1
5 3 1
6 3 1
7 3 1
8 3 1
9 3 1
10 3 1
11 3 1
12 3 1
13 3 1
14 3 1
15 3 1
16 3 1
17 3 1
18 3 1
19 3 1
20 3 1
21 3 1
22 3 1
23 3 1
24 3 1
25 3 1
26 3 1
27 3 1
28 3 1
29 3 1
30 3 1
31 3 1
32 3 1
33 3 1
34 3 1
35 3 1
36 3 1
37 3 1
38 3 1
39 3 1
40 3 1
41 3 1
42 3 1
43 3 1
44 3 1
45 3 1
46 3 1
47 3 1
48 3 1
49 3 1
0 4 1
1 4 1
2 4 1
3 4 1
4 4 1
5 4 1
6 4 1
7 4 1
8 4 1
9 4 1
10 4 1
11 4 1
12 4 1
13 4 1
14 4 1
15 4 1
16 4 1
17 4 1
18 4 1
19 4 1
20 4 1
21 4 1
22 4 1
23 4 1
24 4 1
25 4 1
26 4 1
27 4 1
28 4 1
29 4 1
30 4 1
31 4 1
32 4 1
33 4 1
34 4 1
35 4 1
36 4 1
37 4 1
38 4 1
39 4 1
40 4 1
41 4 1
42 4 1
43 4 1
44 4 1
45 4 1
46 4 1
47 4 1
48 4 1
49 4 1
0 5 1
1 5 1
2 5 1
3 5 1
4 5 1
5 5 1
6 5 1
7 5 1
8 5 1
9 5 1
10 5 1
11 5 1
12 5 1
13 5 1
14 5 1
15 5 1
16 5 1
17 5 1
18 5 1
19 5 1
20 5 1
21 5 1
22 5 1
23 5 1
24 5 1
25 5 1
26 5 1
27 5 1
28 5 1
29 5 1
30 5 1
31 5 1
32 5 1
33 5 1
34 5 1
35 5 1
36 5 1
37 5 1
38 5 1
39 5 1
40 5 1
41 5 1
42 5 1
43 5 1
44 5 1
45 5 1
46 5 1
47 5 1
48 5 1
49 5 1
0 6 1
1 6 1
2 6 1
3 6 1
4 6 1
5 6 1
6 6 1
7 6 1
8 6 1
9 6 1
10 6 1
11 6 1
12 6 1
13 6 1
14 6 1
15 6 1
16 6 1
17 6 1
18 6 1
19 6 1
20 6 1
21 6 1
22 6 1
23 6 1
24 6 1
25 6 1
26 6 1
27 6 1
28 6 1
29 6 1
30 6 1
31 6 1
32 6 1
33 6 1
34 6 1
35 6 1
36 6 1
37 6 1
38 6 1
39 6 1
40 6 1
41 6 1
42 6 1
43 6 1
44 6 1
45 6 1
46 6 1
47 6 1
48 6 1
49 6 1
0 7 1
1 7 1
2 7 1
3 7 1
4 7 1
5 7 1
6 7 1
7 7 1
8 7 1
9 7 1
10 7 1
11 7 1
12 7 1
13 7 1
14 7 1
15 7 1
16 7 1
17 7 1
18 7 1
19 7 1
20 7 1
21 7 1
22 7 1
23 7 1
24 7 1
25 7 1
26 7 1
27 7 1
28 7 1
29 7 1
30 7 1
31 7 1
32 7 1
33 7 1
34 7 1
35 7 1
36 7 1
37 7 1
38 7 1
39 7 1
40 7 1
41 7 1
42 7 1
43 7 1
44 7 1
45 7 1
46 7 1
47 7 1
48 7 1
49 7 1
0 8 1
1 8 1
2 8 1
3 8 1
4 8 1
5 8 1
6 8 1
7 8 1
8 8 1
9 8 1
10 8 1
11 8 1
12 8 1
13 8 1
14 8 1
15 8 1
16 8 1
17 8 1
18 8 1
19 8 1
20 8 1
21 8 1
22 8 1
23 8 1
24 8 1
25 8 1
26 8 1
27 8 1
28 8 1
29 8 1
30 8 1
31 8 1
32 8 1
33 8 1
34 8 1
35 8 1
36 8 1
37 8 1
38 8 1
39 8 1
40 8 1
41 8 1
42 8 1
43 8 1
44 8 1
45 8 1
46 8 1
47 8 1
48 8 1
49 8 1
0 9 1
1 9 1
2 9 1
3 9 1
4 9 1
5 9 1
6 9 1
7 9 1
8 9 1
9 9 1
10 9 1
11 9 1
12 9 1
13 9 1
14 9 1
15 9 1
16 9 1
17 9 1
18 9 1
19 9 1
20 9 1
21 9 1
22 9 1
23 9 1
24 9 1
25 9 1
26 9 1
27 9 1
28 9 1
29 9 1
30 9 1
31 9 1
32 9 1
33 9 1
34 9 1
35 9 1
36 9 1
37 9 1
38 9 1
39 9 1
40 9 1
41 9 1
42 9 1
43 9 1
44 9 1
45 9 1
46 9 1
47 9 1
48 9 1
49 9 1
0 0 2
1 0 2
2 0 2
3 0 2
4 0 2
5 0 2
6 0 2
7 0 2
8 0 2
9 0 2
10 0 2
11 0 2
12 0 2
13 0 2
14 0 2
15 0 2
16 0 2
17 0 2
18 0 2
19 0 2
20 0 2
21 0 2
22 0 2
23 0 2
24 0 2
25 0 2
26 0 2
27 0 2
28 0 2
29 0 2
30 0 2
31 0 2
32 0 2
33 0 2
34 0 2
35 0 2
36 0 2
37 0 2
38 0 2
39 0 2
40 0 2
41 0 2
42 0 2
43 0 2
44 0 2
45 0 2
46 0 2
47 0 2
48 0 2
49 0 2
0 1 2
1 1 2
2 1 2
3 1 2
4 1 2
5 1 2
6 1 2
7 1 2
8 1 2
9 1 2
10 1 2
11 1 2
12 1 2
13 1 2
14 1 2
15 1 2
16 1 2
17 1 2
18 1 2
19 1 2
20 1 2
21 1 2
22 1 2
23 1 2
24 1 2
25 1 2
26 1 2
27 1 2
28 1 2
29 1 2
30 1 2
31 1 2
32 1 2
33 1 2
34 1 2
35 1 2
36 1 2
37 1 2
38 1 2
39 1 2
40 1 2
41 1 2
42 1 2
43 1 2
44 1 2
45 1 2
46 1 2
47 1 2
48 1 2
49 1 2
0 2 2
1 2 2
2 2 2
3 2 2
4 2 2
5 2 2
6 2 2
7 2 2
8 2 2
9 2 2
10 2 2
11 2 2
12 2 2
13 2 2
14 2 2
15 2 2
16 2 2
17 2 2
18 2 2
19 2 2
20 2 2
21 2 2
22 2 2
23 2 2
24 2 2
25 2 2
26 2 2
27 2 2
28 2 2
29 2 2
30 2 2
31 2 2
32 2 2
33 2 2
34 2 2
35 2 2
36 2 2
37 2 2
38 2 2
39 2 2
40 2 2
41 2 2
42 2 2
43 2 2
44 2 2
45 2 2
46 2 2
47 2 2
48 2 2
49 2 2
0 3 2
1 3 2
2 3 2
3 3 2
4 3 2
5 3 2
6 3 2
7 3 2
8 3 2
9 3 2
10 3 2
11 3 2
12 3 2
13 3 2
14 3 2
15 3 2
16 3 2
17 3 2
18 3 2
19 3 2
20 3 2
21 3 2
22 3 2
23 3 2
24 3 2
25 3 2
26 3 2
27 3 2
28 3 2
29 3 2
30 3 2
31 3 2
32 3 2
33 3 2
34 3 2
35 3 2
36 3 2
37 3 2
38 3 2
39 3 2
40 3 2
41 3 2
42 3 2
43 3 2
44 3 2
45 3 2
46 3 2
47 3 2
48 3 2
49 3 2
0 4 2
1 4 2
2 4 2
3 4 2
4 4 2
5 4 2
6 4 2
7 4 2
8 4 2
9 4 2
10 4 2
11 4 2
12 4 2
13 4 2
14 4 2
15 4 2
16 4 2
17 4 2
18 4 2
19 4 2
20 4 2
21 4 2
22 4 2
23 4 2
24 4 2
25 4 2
26 4 2
27 4 2
28 4 2
29 4 2
30 4 2
31 4 2
32 4 2
33 4 2
34 4 2
35 4 2
36 4 2
37 4 2
38 4 2
39 4 2
40 4 2
41 4 2
42 4 2
43 4 2
44 4 2
45 4 2
46 4 2
47 4 2
48 4 2
49 4 2
0 5 2
1 5 2
2 5 2
3 5 2
4 5 2
5 5 2
6 5 2
7 5 2
8 5 2
9 5 2
10 5 2
11 5 2
12 5 2
13 5 2
14 5 2
15 5 2
16 5 2
17 5 2
18 5 2
19 5 2
20 5 2
21 5 2
22 5 2
23 5 2
24 5 2
25 5 2
26 5 2
27 5 2
28 5 2
29 5 2
30 5 2
31 5 2
32 5 2
33 5 2
34 5 2
35 5 2
36 5 2
37 5 2
38 5 2
39 5 2
40 5 2
41 5 2
42 5 2
43 5 2
44 5 2
45 5 2
46 5 2
47 5 2
48 5 2
49 5 2
0 6 2
1 6 2
2 6 2
3 6 2
4 6 2
5 6 2
6 6 2
7 6 2
8 6 2
9 6 2
10 6 2
11 6 2
12 6 2
13 6 2
14 6 2
15 6 2
16 6 2
17 6 2
18 6 2
19 6 2
20 6 2
21 6 2
22 6 2
23 6 2
24 6 2
25 6 2
26 6 2
27 6 2
28 6 2
29 6 2
30 6 2
31 6 2
32 6 2
33 6 2
34 6 2
35 6 2
36 6 2
37 6 2
38 6 2
39 6 2
40 6 2
41 6 2
42 6 2
43 6 2
44 6 2
45 6 2
46 6 2
47 6 2
48 6 2
49 6 2
0 7 2
1 7 2
2 7 2
3 7 2
4 7 2
5 7 2
6 7 2
7 7 2
8 7 2
9 7 2
10 7 2
11 7 2
12 7 2
13 7 2
14 7 2
15 7 2
16 7 2
17 7 2
18 7 2
19 7 2
20 7 2
21 7 2
22 7 2
23 7 2
24 7 2
25 7 2
26 7 2
27 7 2
28 7 2
29 7 2
30 7 2
31 7 2
32 7 2
33 7 2
34 7 2
35 7 2
36 7 2
37 7 2
38 7 2
39 7 2
40 7 2
41 7 2
42 7 2
43 7 2
44 7 2
45 7 2
46 7 2
47 7 2
48 7 2
49 7 2
0 8 2
1 8 2
2 8 2
3 8 2
4 8 2
5 8 2
6 8 2
7 8 2
8 8 2
9 8 2
10 8 2
11 8 2
12 8 2
13 8 2
14 8 2
15 8 2
16 8 2
17 8 2
18 8 2
19 8 2
20 8 2
21 8 2
22 8 2
23 8 2
24 8 2
25 8 2
26 8 2
27 8 2
28 8 2
29 8 2
30 8 2
31 8 2
32 8 2
33 8 2
34 8 2
35 8 2
36 8 2
37 8 2
38 8 2
39 8 2
40 8 2
41 8 2
42 8 2
43 8 2
44 8 2
45 8 2
46 8 2
47 8 2
48 8 2
49 8 2
0 9 2
1 9 2
2 9 2
3 9 2
4 9 2
[...]
POINT_DATA 15000
SCALARS sol26 float
LOOKUP_TABLE default
41.682
41.6789
41.6759
41.6728
41.6698
41.6667
41.6637
41.6606
41.6576
41.6545
41.6515
41.6484
41.6454
41.6423
41.6393
41.6363
41.6332
41.6302
41.6271
41.6241
41.6211
41.618
41.615
41.6119
41.6089
41.6059
41.6028
41.5998
41.5967
41.5937
41.5907
41.5876
41.5846
41.5816
41.5785
41.5755
41.5725
41.5694
41.5664
41.5634
41.5603
41.5573
41.5543
41.5512
41.5482
41.5452
41.5421
41.5391
41.5361
41.533
41.53
41.527
41.524
41.5209
41.5179
41.5149
41.5118
41.5088
41.5058
41.5028
41.4997
41.4967
41.4937
41.4907
41.4877
41.4846
41.4816
41.4786
41.4756
41.4725
41.4695
41.4665
41.4635
41.4605
41.4574
41.4544
41.4514
41.4484
41.4454
41.4424
41.4393
41.4363
41.4333
41.4303
41.4273
41.4243
41.4212
41.4182
41.4152
41.4122
41.4092
41.4062
41.4032
41.4002
41.3971
41.3941
41.3911
41.3881
41.3851
41.3821
41.3791
41.3761
41.3731
41.3701
41.3671
41.3641
41.361
41.358
41.355
41.352
41.349
41.346
41.343
41.34
41.337
41.334
41.331
41.328
41.325
41.322
41.319
41.316
41.313
41.31
41.307
41.304
41.301
41.298
41.295
41.292
41.289
41.286
41.283
41.28
41.277
41.274
41.2711
41.2681
41.2651
41.2621
41.2591
41.2561
41.2531
41.2501
41.2471
41.2441
41.2411
41.2381
41.2352
41.2322
41.2292
41.2262
41.2232
41.2202
41.2172
41.2142
41.2113
41.2083
41.2053
41.2023
41.1993
41.1963
41.1934
41.1904
41.1874
41.1844
41.1814
41.1784
41.1755
41.1725
41.1695
41.1665
41.1635
41.1606
41.1576
41.1546
41.1516
41.1486
41.1457
41.1427
41.1397
41.1367
41.1338
41.1308
41.1278
41.1248
41.1219
41.1189
41.1159
41.1129
41.11
41.107
41.104
41.1011
41.0981
41.0951
41.0922
41.0892
41.0862
41.0832
41.0803
41.0773
41.0743
41.0714
41.0684
41.0654
41.0625
41.0595
41.0565
41.0536
41.0506
41.0477
41.0447
41.0417
41.0388
41.0358
41.0328
41.0299
41.0269
41.024
41.021
41.018
41.0151
41.0121
41.0092
41.0062
41.0032
41.0003
40.9973
40.9944
40.9914
40.9885
40.9855
40.9826
40.9796
40.9766
40.9737
40.9707
40.9678
40.9648
40.9619
40.9589
40.956
40.953
40.9501
40.9471
40.9442
40.9412
40.9383
40.9353
40.9324
40.9294
40.9265
40.9235
40.9206
40.9176
40.9147
40.9118
40.9088
40.9059
40.9029
40.9
40.897
40.8941
40.8911
40.8882
40.8853
40.8823
40.8794
40.8764
40.8735
40.8706
40.8676
40.8647
40.8617
40.8588
40.8559
40.8529
40.85
40.8471
40.8441
40.8412
40.8383
40.8353
40.8324
40.8294
40.8265
40.8236
40.8206
40.8177
40.8148
40.8119
40.8089
40.806
40.8031
40.8001
40.7972
40.7943
40.7913
40.7884
40.7855
40.7826
40.7796
40.7767
40.7738
40.7708
40.7679
40.765
40.7621
40.7591
40.7562
40.7533
40.7504
40.7475
40.7445
40.7416
40.7387
40.7358
40.7328
40.7299
40.727
40.7241
40.7212
40.7182
40.7153
40.7124
40.7095
40.7066
40.7037
40.7007
40.6978
40.6949
40.692
40.6891
40.6862
40.6833
40.6803
40.6774
40.6745
40.6716
40.6687
40.6658
40.6629
40.66
40.657
40.6541
40.6512
40.6483
40.6454
40.6425
40.6396
40.6367
40.6338
40.6309
40.628
40.6251
40.6221
40.6192
40.6163
40.6134
40.6105
40.6076
40.6047
40.6018
40.5989
40.596
40.5931
40.5902
40.5873
40.5844
40.5815
40.5786
40.5757
40.5728
40.5699
40.567
40.5641
40.5612
40.5583
40.5554
40.5525
40.5496
40.5467
40.5438
40.5409
40.538
40.5352
40.5323
40.5294
40.5265
40.5236
40.5207
40.5178
40.5149
40.512
40.5091
40.5062
40.5033
40.5005
40.4976
40.4947
40.4918
40.4889
40.486
40.4831
40.4802
40.4774
40.4745
40.4716
40.4687
40.4658
40.4629
40.4601
40.4572
40.4543
40.4514
40.4485
40.4456
40.4428
40.4399
40.437
40.4341
40.4312
40.4284
40.4255
40.4226
40.4197
40.4168
40.414
40.4111
40.4082
40.4053
40.4025
40.3996
40.3967
40.3938
40.391
40.3881
40.3852
40.3823
40.3795
40.3766
40.3737
40.3709
40.368
40.3651
40.3622
40.3594
40.3565
40.3536
40.3508
40.3479
40.345
40.3422
40.3393
40.3364
40.3336
40.3307
40.3278
40.325
40.3221
40.3192
40.3164
40.3135
40.3106
40.3078
40.3049
40.3021
40.2992
40.2963
40.2935
40.2906
40.2878
40.2849
40.282
40.2792
40.2763
40.2735
40.2706
40.2677
40.2649
40.262
40.2592
40.2563
40.2535
40.2506
40.2478
40.2449
40.242
40.2392
40.2363
40.2335
40.2306
40.2278
40.2249
40.2221
40.2192
40.2164
40.2135
40.2107
40.2078
40.205
40.2021
40.1993
40.1964
40.1936
40.1907
40.1879
40.1851
40.1822
40.1794
40.1765
40.1737
40.1708
40.168
40.1651
40.1623
40.1595
40.1566
40.1538
40.1509
40.1481
40.1453
40.1424
40.1396
40.1367
40.1339
40.1311
40.1282
40.1254
40.1225
40.1197
40.1169
40.114
40.1112
40.1084
40.1055
40.1027
40.0999
40.097
40.0942
40.0914
40.0885
40.0857
40.0829
40.08
40.0772
40.0744
40.0715
40.0687
40.0659
40.0631
40.0602
40.0574
40.0546
40.0517
40.0489
40.0461
40.0433
40.0404
40.0376
40.0348
40.032
40.0291
40.0263
40.0235
40.0207
40.0178
40.015
40.0122
40.0094
40.0066
40.0037
40.0009
39.9981
39.9953
39.9925
39.9896
39.9868
39.984
39.9812
39.9784
39.9756
39.9727
39.9699
39.9671
39.9643
39.9615
39.9587
39.9558
39.953
39.9502
39.9474
39.9446
39.9418
39.939
39.9362
39.9333
39.9305
39.9277
39.9249
39.9221
39.9193
39.9165
39.9137
39.9109
39.9081
39.9053
39.9024
39.8996
39.8968
39.894
39.8912
39.8884
39.8856
39.8828
39.88
39.8772
39.8744
39.8716
39.8688
39.866
39.8632
39.8604
39.8576
39.8548
39.852
39.8492
39.8464
39.8436
39.8408
39.838
39.8352
39.8324
39.8296
39.8268
39.824
39.8212
39.8184
39.8156
39.8128
39.81
39.8073
39.8045
39.8017
39.7989
39.7961
39.7933
39.7905
39.7877
39.7849
39.7821
39.7793
39.7765
39.7738
39.771
39.7682
39.7654
39.7626
39.7598
39.757
39.7542
39.7515
39.7487
39.7459
39.7431
39.7403
39.7375
39.7348
39.732
39.7292
39.7264
39.7236
39.7208
39.7181
39.7153
39.7125
39.7097
39.7069
39.7042
39.7014
39.6986
39.6958
39.6931
39.6903
39.6875
39.6847
39.6819
39.6792
39.6764
39.6736
39.6708
39.6681
39.6653
39.6625
39.6597
39.657
39.6542
39.6514
39.6487
39.6459
39.6431
39.6403
39.6376
39.6348
39.632
39.6293
39.6265
39.6237
39.621
39.6182
39.6154
39.6127
39.6099
39.6071
39.6044
39.6016
39.5988
39.5961
39.5933
39.5906
39.5878
39.585
39.5823
39.5795
39.5767
39.574
39.5712
39.5685
39.5657
39.5629
39.5602
39.5574
39.5547
39.5519
39.5491
39.5464
39.5436
39.5409
39.5381
39.5354
39.5326
39.5299
39.5271
39.5243
39.5216
39.5188
39.5161
39.5133
39.5106
39.5078
39.5051
39.5023
39.4996
39.4968
39.4941
39.4913
39.4886
39.4858
39.4831
39.4803
39.4776
39.4748
39.4721
39.4693
39.4666
39.4639
39.4611
39.4584
39.4556
39.4529
39.4501
39.4474
39.4446
39.4419
39.4392
39.4364
39.4337
39.4309
39.4282
39.4255
39.4227
39.42
39.4172
39.4145
39.4118
39.409
39.4063
39.4035
39.4008
39.3981
39.3953
39.3926
39.3899
39.3871
39.3844
39.3817
39.3789
39.3762
39.3735
39.3707
39.368
39.3653
39.3625
39.3598
39.3571
39.3543
39.3516
39.3489
39.3462
39.3434
39.3407
39.338
39.3352
39.3325
39.3298
39.3271
39.3243
39.3216
39.3189
39.3162
39.3134
39.3107
39.308
39.3053
39.3025
39.2998
39.2971
39.2944
39.2917
39.2889
39.2862
39.2835
39.2808
39.2781
39.2753
39.2726
39.2699
39.2672
39.2645
39.2617
39.259
39.2563
39.2536
39.2509
39.2482
39.2455
39.2427
39.24
39.2373
39.2346
39.2319
39.2292
39.2265
39.2237
39.221
39.2183
39.2156
39.2129
39.2102
39.2075
39.2048
39.2021
39.1994
39.1967
39.1939
39.1912
39.1885
39.1858
39.1831
39.1804
39.1777
39.175
39.1723
39.1696
39.1669
39.1642
39.1615
39.1588
39.1561
39.1534
39.1507
39.148
39.1453
39.1426
39.1399
39.1372
39.1345
39.1318
39.1291
39.1264
39.1237
39.121
39.1183
39.1156
39.1129
39.1102
39.1075
39.1048
39.1021
39.0994
39.0967
39.094
39.0913
39.0886
39.086
39.0833
39.0806
39.0779
39.0752
39.0725
39.0698
39.0671
39.0644
39.0617
39.059
39.0564
39.0537
39.051
39.0483
39.0456
39.0429
39.0402
39.0376
39.0349
39.0322
39.0295
39.0268
39.0241
39.0214
39.0188
39.0161
39.0134
39.0107
39.008
39.0054
39.0027
39
38.9973
38.9946
38.992
38.9893
38.9866
38.9839
38.9812
38.9786
38.9759
38.9732
38.9705
38.9679
38.9652
38.9625
38.9598
38.9572
38.9545
38.9518
38.9491
38.9465
38.9438
38.9411
38.9385
38.9358
38.9331
38.9304
38.9278
38.9251
38.9224
38.9198
38.9171
38.9144
38.9118
38.9091
38.9064
38.9038
38.9011
38.8984
38.8958
38.8931
38.8904
38.8878
38.8851
38.8824
38.8798
38.8771
38.8745
38.8718
38.8691
38.8665
38.8638
38.8611
38.8585
38.8558
38.8532
38.8505
38.8479
38.8452
38.8425
38.8399
38.8372
38.8346
38.8319
38.8293
38.8266
38.8239
38.8213
38.8186
38.816
38.8133
38.8107
38.808
38.8054
38.8027
38.8001
38.7974
38.7948
38.7921
38.7895
38.7868
38.7842
38.7815
38.7789
38.7762
38.7736
38.7709
38.7683
38.7656
38.763
38.7603
38.7577
38.755
38.7524
38.7497
38.7471
38.7445
38.7418
38.7392
38.7365
38.7339
38.7312
38.7286
38.726
38.7233
38.7207
38.718
38.7154
38.7128
38.7101
38.7075
38.7048
38.7022
38.6996
38.6969
38.6943
38.6917
38.689
38.6864
38.6838
38.6811
38.6785
38.6759
38.6732
38.6706
38.668
38.6653
38.6627
38.6601
38.6574
38.6548
38.6522
38.6495
38.6469
38.6443
38.6416
38.639
38.6364
38.6338
38.6311
38.6285
38.6259
38.6233
38.6206
38.618
38.6154
38.6127
38.6101
38.6075
38.6049
38.6023
38.5996
38.597
38.5944
38.5918
38.5891
38.5865
38.5839
38.5813
38.5787
38.576
38.5734
38.5708
38.5682
38.5656
38.5629
38.5603
38.5577
38.5551
38.5525
38.5499
38.5472
38.5446
38.542
38.5394
38.5368
38.5342
38.5316
38.5289
38.5263
38.5237
38.5211
38.5185
38.5159
38.5133
38.5107
38.5081
38.5054
38.5028
38.5002
38.4976
38.495
38.4924
38.4898
38.4872
38.4846
38.482
38.4794
38.4768
38.4742
38.4716
38.4689
38.4663
38.4637
38.4611
38.4585
38.4559
38.4533
38.4507
38.4481
38.4455
38.4429
38.4403
38.4377
38.4351
38.4325
38.4299
38.4273
38.4247
38.4221
38.4195
38.4169
38.4143
38.4117
38.4092
38.4066
38.404
38.4014
38.3988
38.3962
38.3936
38.391
38.3884
38.3858
38.3832
38.3806
38.378
38.3754
38.3728
38.3703
38.3677
38.3651
38.3625
38.3599
38.3573
38.3547
38.3521
38.3496
38.347
38.3444
38.3418
38.3392
38.3366
38.334
38.3315
38.3289
38.3263
38.3237
38.3211
38.3185
38.316
38.3134
38.3108
38.3082
38.3056
38.303
38.3005
38.2979
38.2953
38.2927
38.2901
38.2876
38.285
38.2824
38.2798
38.2773
38.2747
38.2721
38.2695
38.267
38.2644
38.2618
38.2592
38.2567
38.2541
38.2515
38.2489
38.2464
38.2438
38.2412
38.2387
38.2361
38.2335
38.2309
38.2284
38.2258
38.2232
38.2207
38.2181
38.2155
38.213
38.2104
38.2078
38.2053
38.2027
38.2001
38.1976
38.195
38.1924
38.1899
38.1873
38.1847
38.1822
38.1796
38.1771
38.1745
38.1719
38.1694
38.1668
38.1642
38.1617
38.1591
38.1566
38.154
38.1515
38.1489
38.1463
38.1438
38.1412
38.1387
38.1361
38.1336
38.131
38.1284
38.1259
38.1233
38.1208
38.1182
38.1157
38.1131
38.1106
38.108
38.1055
38.1029
38.1004
38.0978
38.0953
38.0927
38.0902
38.0876
38.0851
38.0825
38.08
38.0774
38.0749
38.0723
38.0698
38.0672
38.0647
38.0621
38.0596
38.057
38.0545
38.052
38.0494
38.0469
38.0443
38.0418
38.0392
38.0367
38.0342
38.0316
38.0291
38.0265
38.024
38.0215
38.0189
38.0164
38.0138
38.0113
38.0088
38.0062
38.0037
38.0011
37.9986
37.9961
37.9935
37.991
37.9885
37.9859
37.9834
37.9809
37.9783
37.9758
37.9733
37.9707
37.9682
37.9657
37.9631
37.9606
37.9581
37.9556
37.953
37.9505
37.948
37.9454
37.9429
37.9404
37.9379
37.9353
37.9328
37.9303
37.9277
37.9252
37.9227
37.9202
37.9176
37.9151
37.9126
37.9101
37.9075
37.905
37.9025
37.9
37.8975
37.8949
37.8924
37.8899
37.8874
37.8849
37.8823
37.8798
37.8773
37.8748
37.8723
37.8697
37.8672
37.8647
37.8622
37.8597
37.8572
37.8546
37.8521
37.8496
37.8471
37.8446
37.8421
37.8396
37.8371
37.8345
37.832
37.8295
37.827
37.8245
37.822
37.8195
37.817
37.8145
37.8119
37.8094
37.8069
37.8044
37.8019
37.7994
37.7969
37.7944
37.7919
37.7894
37.7869
37.7844
37.7819
37.7794
37.7769
37.7743
37.7718
37.7693
37.7668
37.7643
37.7618
37.7593
37.7568
37.7543
37.7518
37.7493
37.7468
37.7443
37.7418
37.7393
37.7368
37.7343
37.7318
37.7293
37.7268
37.7244
37.7219
37.7194
37.7169
37.7144
37.7119
37.7094
37.7069
37.7044
37.7019
37.6994
37.6969
37.6944
37.6919
37.6894
37.687
37.6845
37.682
37.6795
37.677
37.6745
37.672
37.6695
37.667
37.6646
37.6621
37.6596
37.6571
37.6546
37.6521
37.6496
37.6471
37.6447
37.6422
37.6397
37.6372
37.6347
37.6322
37.6298
37.6273
37.6248
37.6223
37.6198
37.6174
37.6149
37.6124
37.6099
37.6074
37.605
37.6025
37.6
37.5975
37.595
37.5926
37.5901
37.5876
37.5851
37.5827
37.5802
37.5777
37.5752
37.5728
37.5703
37.5678
37.5653
37.5629
37.5604
37.5579
37.5555
37.553
37.5505
37.548
37.5456
37.5431
37.5406
37.5382
37.5357
37.5332
37.5308
37.5283
37.5258
37.5234
37.5209
37.5184
37.516
37.5135
37.511
37.5086
37.5061
37.5036
37.5012
37.4987
37.4963
37.4938
37.4913
37.4889
37.4864
37.4839
37.4815
37.479
37.4766
37.4741
37.4716
37.4692
37.4667
37.4643
37.4618
37.4594
37.4569
37.4544
37.452
37.4495
37.4471
37.4446
37.4422
37.4397
37.4373
37.4348
37.4324
37.4299
37.4274
37.425
37.4225
37.4201
37.4176
37.4152
37.4127
37.4103
37.4078
37.4054
37.4029
37.4005
37.398
37.3956
37.3931
37.3907
37.3883
37.3858
37.3834
37.3809
37.3785
37.376
37.3736
37.3711
37.3687
37.3663
37.3638
37.3614
37.3589
37.3565
37.354
37.3516
37.3492
37.3467
37.3443
37.3418
37.3394
37.337
37.3345
37.3321
37.3296
37.3272
37.3248
37.3223
37.3199
37.3175
37.315
37.3126
37.3101
37.3077
37.3053
37.3028
37.3004
37.298
37.2955
37.2931
37.2907
37.2882
37.2858
37.2834
37.281
37.2785
37.2761
37.2737
37.2712
37.2688
37.2664
37.264
37.2615
37.2591
37.2567
37.2542
37.2518
37.2494
37.247
37.2445
37.2421
37.2397
37.2373
37.2348
37.2324
37.23
37.2276
37.2251
37.2227
37.2203
37.2179
37.2155
37.213
37.2106
37.2082
37.2058
37.2034
37.2009
37.1985
37.1961
37.1937
37.1913
37.1889
37.1864
37.184
37.1816
37.1792
37.1768
37.1744
37.1719
37.1695
37.1671
37.1647
37.1623
37.1599
37.1575
37.1551
37.1526
37.1502
37.1478
37.1454
37.143
37.1406
37.1382
37.1358
37.1334
37.131
37.1285
37.1261
37.1237
37.1213
37.1189
37.1165
37.1141
37.1117
37.1093
37.1069
37.1045
37.1021
37.0997
37.0973
37.0949
37.0925
37.0901
37.0877
37.0853
37.0829
37.0805
37.0781
37.0757
37.0733
37.0709
37.0685
37.0661
37.0637
37.0613
37.0589
37.0565
37.0541
37.0517
37.0493
37.0469
37.0445
37.0421
37.0397
37.0373
37.0349
37.0325
37.0301
37.0277
37.0253
37.0229
37.0205
37.0182
37.0158
37.0134
37.011
37.0086
37.0062
37.0038
37.0014
36.999
36.9966
36.9943
36.9919
36.9895
36.9871
36.9847
36.9823
36.9799
36.9776
36.9752
36.9728
36.9704
36.968
36.9656
36.9633
36.9609
36.9585
36.9561
36.9537
36.9513
36.949
36.9466
36.9442
36.9418
36.9394
36.9371
36.9347
36.9323
36.9299
36.9275
36.9252
36.9228
36.9204
36.918
36.9157
36.9133
36.9109
36.9085
36.9062
36.9038
36.9014
36.899
36.8967
36.8943
36.8919
36.8895
36.8872
36.8848
36.8824
36.8801
36.8777
36.8753
36.8729
36.8706
36.8682
36.8658
36.8635
36.8611
36.8587
36.8564
36.854
36.8516
36.8493
36.8469
36.8445
36.8422
36.8398
36.8374
36.8351
36.8327
36.8304
36.828
36.8256
36.8233
36.8209
36.8185
36.8162
36.8138
36.8115
36.8091
36.8067
36.8044
36.802
36.7997
36.7973
36.7949
36.7926
36.7902
36.7879
36.7855
36.7832
36.7808
36.7785
36.7761
36.7737
36.7714
36.769
36.7667
36.7643
36.762
36.7596
36.7573
36.7549
36.7526
36.7502
36.7479
36.7455
36.7432
36.7408
36.7385
36.7361
36.7338
36.7314
36.7291
36.7267
36.7244
36.722
36.7197
36.7173
36.715
36.7126
36.7103
36.708
36.7056
36.7033
36.7009
36.6986
36.6962
36.6939
36.6915
36.6892
36.6869
36.6845
36.6822
36.6798
36.6775
36.6752
36.6728
36.6705
36.6681
36.6658
36.6635
36.6611
36.6588
36.6565
36.6541
36.6518
36.6494
36.6471
36.6448
36.6424
36.6401
36.6378
36.6354
36.6331
36.6308
36.6284
36.6261
36.6238
36.6214
36.6191
36.6168
36.6145
36.6121
36.6098
36.6075
36.6051
36.6028
36.6005
36.5981
36.5958
36.5935
36.5912
36.5888
36.5865
36.5842
36.5819
36.5795
36.5772
36.5749
36.5726
36.5702
36.5679
36.5656
36.5633
36.5609
36.5586
36.5563
36.554
36.5517
36.5493
36.547
36.5447
36.5424
36.5401
36.5377
36.5354
36.5331
36.5308
36.5285
36.5261
36.5238
36.5215
36.5192
36.5169
36.5146
36.5123
36.5099
36.5076
36.5053
36.503
36.5007
36.4984
36.4961
36.4937
36.4914
36.4891
36.4868
36.4845
36.4822
36.4799
36.4776
36.4753
36.473
36.4706
36.4683
36.466
36.4637
36.4614
36.4591
36.4568
36.4545
36.4522
36.4499
36.4476
36.4453
36.443
36.4407
36.4384
36.4361
36.4338
36.4314
36.4291
36.4268
36.4245
36.4222
36.4199
36.4176
36.4153
36.413
36.4107
36.4084
36.4061
36.4038
36.4015
36.3992
36.397
36.3947
36.3924
36.3901
36.3878
36.3855
36.3832
36.3809
36.3786
36.3763
36.374
36.3717
36.3694
36.3671
36.3648
36.3625
36.3602
36.3579
36.3557
36.3534
36.3511
36.3488
36.3465
36.3442
36.3419
36.3396
36.3373
36.3351
36.3328
36.3305
36.3282
36.3259
36.3236
36.3213
36.319
36.3168
36.3145
36.3122
36.3099
36.3076
36.3053
36.3031
36.3008
36.2985
36.2962
36.2939
36.2916
36.2894
36.2871
36.2848
36.2825
36.2802
36.278
36.2757
36.2734
36.2711
36.2689
36.2666
36.2643
36.262
36.2597
36.2575
36.2552
36.2529
36.2506
36.2484
36.2461
36.2438
36.2416
36.2393
36.237
36.2347
36.2325
36.2302
36.2279
36.2256
36.2234
36.2211
36.2188
36.2166
36.2143
36.212
36.2098
36.2075
36.2052
36.203
36.2007
36.1984
36.1962
36.1939
36.1916
36.1894
36.1871
36.1848
36.1826
36.1803
36.178
36.1758
36.1735
36.1712
36.169
36.1667
36.1645
36.1622
36.1599
36.1577
36.1554
36.1532
36.1509
36.1486
36.1464
36.1441
36.1419
36.1396
36.1373
36.1351
36.1328
36.1306
36.1283
36.1261
36.1238
36.1216
36.1193
36.117
36.1148
36.1125
36.1103
36.108
36.1058
36.1035
36.1013
36.099
36.0968
36.0945
36.0923
36.09
36.0878
36.0855
36.0833
36.081
36.0788
36.0765
36.0743
36.072
36.0698
36.0675
36.0653
36.063
36.0608
36.0586
36.0563
36.0541
36.0518
36.0496
36.0473
36.0451
36.0428
36.0406
36.0384
36.0361
36.0339
36.0316
36.0294
36.0272
36.0249
36.0227
36.0204
36.0182
36.016
36.0137
36.0115
36.0092
36.007
36.0048
36.0025
36.0003
35.9981
35.9958
35.9936
35.9914
35.9891
35.9869
35.9847
35.9824
35.9802
35.978
35.9757
35.9735
35.9713
35.969
35.9668
35.9646
35.9623
35.9601
35.9579
35.9556
35.9534
35.9512
35.949
35.9467
35.9445
35.9423
35.9401
35.9378
35.9356
35.9334
35.9311
35.9289
35.9267
35.9245
35.9223
35.92
35.9178
35.9156
35.9134
35.9111
35.9089
35.9067
35.9045
35.9022
35.9
35.8978
35.8956
35.8934
35.8912
35.8889
35.8867
35.8845
35.8823
35.8801
35.8778
35.8756
35.8734
35.8712
35.869
35.8668
35.8645
35.8623
35.8601
35.8579
35.8557
35.8535
35.8513
35.8491
35.8468
35.8446
35.8424
35.8402
35.838
35.8358
35.8336
35.8314
35.8292
35.8269
35.8247
35.8225
35.8203
35.8181
35.8159
35.8137
35.8115
35.8093
35.8071
35.8049
35.8027
35.8005
35.7983
35.7961
35.7938
35.7916
35.7894
35.7872
35.785
35.7828
35.7806
35.7784
35.7762
35.774
35.7718
35.7696
35.7674
35.7652
35.763
35.7608
35.7586
35.7564
35.7542
35.752
35.7498
35.7476
35.7454
35.7433
35.7411
35.7389
35.7367
35.7345
35.7323
35.7301
35.7279
35.7257
35.7235
35.7213
35.7191
35.7169
35.7147
35.7125
35.7104
35.7082
35.706
35.7038
35.7016
35.6994
35.6972
35.695
35.6928
35.6906
35.6885
35.6863
35.6841
35.6819
35.6797
35.6775
35.6753
35.6732
35.671
35.6688
35.6666
35.6644
35.6622
35.6601
35.6579
35.6557
35.6535
35.6513
35.6491
35.647
35.6448
35.6426
35.6404
35.6382
35.6361
35.6339
35.6317
35.6295
35.6274
35.6252
35.623
35.6208
35.6186
35.6165
35.6143
35.6121
35.6099
35.6078
35.6056
35.6034
35.6012
35.5991
35.5969
35.5947
35.5926
35.5904
35.5882
35.586
35.5839
35.5817
35.5795
35.5774
35.5752
35.573
35.5709
35.5687
35.5665
35.5643
35.5622
35.56
35.5578
35.5557
35.5535
35.5513
35.5492
35.547
35.5449
35.5427
35.5405
35.5384
35.5362
35.534
35.5319
35.5297
35.5275
35.5254
35.5232
35.5211
35.5189
35.5167
35.5146
35.5124
35.5103
35.5081
35.5059
35.5038
35.5016
35.4995
35.4973
35.4952
35.493
35.4908
35.4887
35.4865
35.4844
35.4822
35.4801
35.4779
35.4758
35.4736
35.4715
35.4693
35.4671
35.465
35.4628
35.4607
35.4585
35.4564
35.4542
35.4521
35.4499
35.4478
35.4456
35.4435
35.4413
35.4392
35.4371
35.4349
35.4328
35.4306
35.4285
35.4263
35.4242
35.422
35.4199
35.4177
35.4156
35.4134
35.4113
35.4092
35.407
35.4049
35.4027
35.4006
35.3985
35.3963
35.3942
35.392
35.3899
35.3877
35.3856
35.3835
35.3813
35.3792
35.3771
35.3749
35.3728
35.3706
35.3685
35.3664
35.3642
35.3621
35.36
35.3578
35.3557
35.3536
35.3514
35.3493
35.3472
35.345
35.3429
35.3408
35.3386
35.3365
35.3344
35.3322
35.3301
35.328
35.3258
35.3237
35.3216
35.3195
35.3173
35.3152
35.3131
35.3109
35.3088
35.3067
35.3046
35.3024
35.3003
35.2982
35.2961
35.2939
35.2918
35.2897
35.2876
35.2854
35.2833
35.2812
35.2791
35.2769
35.2748
35.2727
35.2706
35.2685
35.2663
35.2642
35.2621
35.26
35.2579
35.2557
35.2536
35.2515
35.2494
35.2473
35.2452
35.243
35.2409
35.2388
35.2367
35.2346
35.2325
35.2303
35.2282
35.2261
35.224
35.2219
35.2198
35.2177
35.2156
35.2134
35.2113
35.2092
35.2071
35.205
35.2029
35.2008