# vtk DataFile Version 2.0
vtk output
ASCII
DATASET STRUCTURED_GRID
DIMENSIONS 50 10 30
POINTS 15000 float
0 0 0
1 0 0
2 0 0
3 0 0
4 0 0
5 0 0
6 0 0
7 0 0
8 0 0
9 0 0
10 0 0
11 0 0
12 0 0
13 0 0
14 0 0
15 0 0
16 0 0
17 0 0
18 0 0
19 0 0
20 0 0
21 0 0
22 0 0
23 0 0
24 0 0
25 0 0
26 0 0
27 0 0
28 0 0
29 0 0
30 0 0
31 0 0
32 0 0
33 0 0
34 0 0
35 0 0
36 0 0
37 0 0
38 0 0
39 0 0
40 0 0
41 0 0
42 0 0
43 0 0
44 0 0
45 0 0
46 0 0
47 0 0
48 0 0
49 0 0
0 1 0
1 1 0
2 1 0
3 1 0
4 1 0
5 1 0
6 1 0
7 1 0
8 1 0
9 1 0
10 1 0
11 1 0
12 1 0
13 1 0
14 1 0
15 1 0
16 1 0
17 1 0
18 1 0
19 1 0
20 1 0
21 1 0
22 1 0
23 1 0
24 1 0
25 1 0
26 1 0
27 1 0
28 1 0
29 1 0
30 1 0
31 1 0
32 1 0
33 1 0
34 1 0
35 1 0
36 1 0
37 1 0
38 1 0
39 1 0
40 1 0
41 1 0
42 1 0
43 1 0
44 1 0
45 1 0
46 1 0
47 1 0
48 1 0
49 1 0
0 2 0
1 2 0
2 2 0
3 2 0
4 2 0
5 2 0
6 2 0
7 2 0
8 2 0
9 2 0
10 2 0
11 2 0
12 2 0
13 2 0
14 2 0
15 2 0
16 2 0
17 2 0
18 2 0
19 2 0
20 2 0
21 2 0
22 2 0
23 2 0
24 2 0
25 2 0
26 2 0
27 2 0
28 2 0
29 2 0
30 2 0
31 2 0
32 2 0
33 2 0
34 2 0
35 2 0
36 2 0
37 2 0
38 2 0
39 2 0
40 2 0
41 2 0
42 2 0
43 2 0
44 2 0
45 2 0
46 2 0
47 2 0
48 2 0
49 2 0
0 3 0
1 3 0
2 3 0
3 3 0
4 3 0
5 3 0
6 3 0
7 3 0
8 3 0
9 3 0
10 3 0
11 3 0
12 3 0
13 3 0
14 3 0
15 3 0
16 3 0
17 3 0
18 3 0
19 3 0
20 3 0
21 3 0
22 3 0
23 3 0
24 3 0
25 3 0
26 3 0
27 3 0
28 3 0
29 3 0
30 3 0
31 3 0
32 3 0
33 3 0
34 3 0
35 3 0
36 3 0
37 3 0
38 3 0
39 3 0
40 3 0
41 3 0
42 3 0
43 3 0
44 3 0
45 3 0
46 3 0
47 3 0
48 3 0
49 3 0
0 4 0
1 4 0
2 4 0
3 4 0
4 4 0
5 4 0
6 4 0
7 4 0
8 4 0
9 4 0
10 4 0
11 4 0
12 4 0
13 4 0
14 4 0
15 4 0
16 4 0
17 4 0
18 4 0
19 4 0
20 4 0
21 4 0
22 4 0
23 4 0
24 4 0
25 4 0
26 4 0
27 4 0
28 4 0
29 4 0
30 4 0
31 4 0
32 4 0
33 4 0
34 4 0
35 4 0
36 4 0
37 4 0
38 4 0
39 4 0
40 4 0
41 4 0
42 4 0
43 4 0
44 4 0
45 4 0
46 4 0
47 4 0
48 4 0
49 4 0
0 5 0
1 5 0
2 5 0
3 5 0
4 5 0
5 5 0
6 5 0
7 5 0
8 5 0
9 5 0
10 5 0
11 5 0
12 5 0
13 5 0
14 5 0
15 5 0
16 5 0
17 5 0
18 5 0
19 5 0
20 5 0
21 5 0
22 5 0
23 5 0
24 5 0
25 5 0
26 5 0
27 5 0
28 5 0
29 5 0
30 5 0
31 5 0
32 5 0
33 5 0
34 5 0
35 5 0
36 5 0
37 5 0
38 5 0
39 5 0
40 5 0
41 5 0
42 5 0
43 5 0
44 5 0
45 5 0
46 5 0
47 5 0
48 5 0
49 5 0
0 6 0
1 6 0
2 6 0
3 6 0
4 6 0
5 6 0
6 6 0
7 6 0
8 6 0
9 6 0
10 6 0
11 6 0
12 6 0
13 6 0
14 6 0
15 6 0
16 6 0
17 6 0
18 6 0
19 6 0
20 6 0
21 6 0
22 6 0
23 6 0
24 6 0
25 6 0
26 6 0
27 6 0
28 6 0
29 6 0
30 6 0
31 6 0
32 6 0
33 6 0
34 6 0
35 6 0
36 6 0
37 6 0
38 6 0
39 6 0
40 6 0
41 6 0
42 6 0
43 6 0
44 6 0
45 6 0
46 6 0
47 6 0
48 6 0
49 6 0
0 7 0
1 7 0
2 7 0
3 7 0
4 7 0
5 7 0
6 7 0
7 7 0
8 7 0
9 7 0
10 7 0
11 7 0
12 7 0
13 7 0
14 7 0
15 7 0
16 7 0
17 7 0
18 7 0
19 7 0
20 7 0
21 7 0
22 7 0
23 7 0
24 7 0
25 7 0
26 7 0
27 7 0
28 7 0
29 7 0
30 7 0
31 7 0
32 7 0
33 7 0
34 7 0
35 7 0
36 7 0
37 7 0
38 7 0
39 7 0
40 7 0
41 7 0
42 7 0
43 7 0
44 7 0
45 7 0
46 7 0
47 7 0
48 7 0
49 7 0
0 8 0
1 8 0
2 8 0
3 8 0
4 8 0
5 8 0
6 8 0
7 8 0
8 8 0
9 8 0
10 8 0
11 8 0
12 8 0
13 8 0
14 8 0
15 8 0
16 8 0
17 8 0
18 8 0
19 8 0
20 8 0
21 8 0
22 8 0
23 8 0
24 8 0
25 8 0
26 8 0
27 8 0
28 8 0
29 8 0
30 8 0
31 8 0
32 8 0
33 8 0
34 8 0
35 8 0
36 8 0
37 8 0
38 8 0
39 8 0
40 8 0
41 8 0
42 8 0
43 8 0
44 8 0
45 8 0
46 8 0
47 8 0
48 8 0
49 8 0
0 9 0
1 9 0
2 9 0
3 9 0
4 9 0
5 9 0
6 9 0
7 9 0
8 9 0
9 9 0
10 9 0
11 9 0
12 9 0
13 9 0
14 9 0
15 9 0
16 9 0
17 9 0
18 9 0
19 9 0
20 9 0
21 9 0
22 9 0
23 9 0
24 9 0
25 9 0
26 9 0
27 9 0
28 9 0
29 9 0
30 9 0
31 9 0
32 9 0
33 9 0
34 9 0
35 9 0
36 9 0
37 9 0
38 9 0
39 9 0
40 9 0
41 9 0
42 9 0
43 9 0
44 9 0
45 9 0
46 9 0
47 9 0
48 9 0
49 9 0
0 0 1
1 0 1
2 0 1
3 0 1
4 0 1
5 0 1
6 0 1
7 0 1
8 0 1
9 0 1
10 0 1
11 0 1
12 0 1
13 0 1
14 0 1
15 0 1
16 0 1
17 0 1
18 0 1
19 0 1
20 0 1
21 0 1
22 0 1
23 0 1
24 0 1
25 0 1
26 0 1
27 0 1
28 0 1
29 0 1
30 0 1
31 0 1
32 0 1
33 0 1
34 0 1
35 0 1
36 0 1
37 0 1
38 0 1
39 0 1
40 0 1
41 0 1
42 0 1
43 0 1
44 0 1
45 0 1
46 0 1
47 0 1
48 0 1
49 0 1
0 1 1
1 1 1
2 1 1
3 1 1
4 1 1
5 1 1
6 1 1
7 1 1
8 1 1
9 1 1
10 1 1
11 1 1
12 1 1
13 1 1
14 1 1
15 1 1
16 1 1
17 1 1
18 1 1
19 1 1
20 1 1
21 1 1
22 1 1
23 1 1
24 1 1
25 1 1
26 1 1
27 1 1
28 1 1
29 1 1
30 1 1
31 1 1
32 1 1
33 1 1
34 1 1
35 1 1
36 1 1
37 1 1
38 1 1
39 1 1
40 1 1
41 1 1
42 1 1
43 1 1
44 1 1
45 1 1
46 1 1
47 1 1
48 1 1
49 1 1
0 2 1
1 2 1
2 2 1
3 2 1
4 2 1
5 2 1
6 2 1
7 2 1
8 2 1
9 2 1
10 2 1
11 2 1
12 2 1
13 2 1
14 2 1
15 2 1
16 2 1
17 2 1
18 2 1
19 2 1
20 2 1
21 2 1
22 2 1
23 2 1
24 2 1
25 2 1
26 2 1
27 2 1
28 2 1
29 2 1
30 2 1
31 2 1
32 2 1
33 2 1
34 2 1
35 2 1
36 2 1
37 2 1
38 2 1
39 2 1
40 2 1
41 2 1
42 2 1
43 2 1
44 2 1
45 2 1
46 2 1
47 2 1
48 2 1
49 2 1
0 3 1
1 3 1
2 3 1
3 3 1
4 3 1
5 3 1
6 3 1
7 3 1
8 3 1
9 3 1
10 3 1
11 3 1
12 3 1
13 3 1
14 3 1
15 3 1
16 3 1
17 3 1
18 3 1
19 3 1
20 3 1
21 3 1
22 3 1
23 3 1
24 3 1
25 3 1
26 3 1
27 3 1
28 3 1
29 3 1
30 3 1
31 3 1
32 3 1
33 3 1
34 3 1
35 3 1
36 3 1
37 3 1
38 3 1
39 3 1
40 3 1
41 3 1
42 3 1
43 3 1
44 3 1
45 3 1
46 3 1
47 3 1
48 3 1
49 3 1
0 4 1
1 4 1
2 4 1
3 4 1
4 4 1
5 4 1
6 4 1
7 4 1
8 4 1
9 4 1
10 4 1
11 4 1
12 4 1
13 4 1
14 4 1
15 4 1
16 4 1
17 4 1
18 4 1
19 4 1
20 4 1
21 4 1
22 4 1
23 4 1
24 4 1
25 4 1
26 4 1
27 4 1
28 4 1
29 4 1
30 4 1
31 4 1
32 4 1
33 4 1
34 4 1
35 4 1
36 4 1
37 4 1
38 4 1
39 4 1
40 4 1
41 4 1
42 4 1
43 4 1
44 4 1
45 4 1
46 4 1
47 4 1
48 4 1
49 4 1
0 5 1
1 5 1
2 5 1
3 5 1
4 5 1
5 5 1
6 5 1
7 5 1
8 5 1
9 5 1
10 5 1
11 5 1
12 5 1
13 5 1
14 5 1
15 5 1
16 5 1
17 5 1
18 5 1
19 5 1
20 5 1
21 5 1
22 5 1
23 5 1
24 5 1
25 5 1
26 5 1
27 5 1
28 5 1
29 5 1
30 5 1
31 5 1
32 5 1
33 5 1
34 5 1
35 5 1
36 5 1
37 5 1
38 5 1
39 5 1
40 5 1
41 5 1
42 5 1
43 5 1
44 5 1
45 5 1
46 5 1
47 5 1
48 5 1
49 5 1
0 6 1
1 6 1
2 6 1
3 6 1
4 6 1
5 6 1
6 6 1
7 6 1
8 6 1
9 6 1
10 6 1
11 6 1
12 6 1
13 6 1
14 6 1
15 6 1
16 6 1
17 6 1
18 6 1
19 6 1
20 6 1
21 6 1
22 6 1
23 6 1
24 6 1
25 6 1
26 6 1
27 6 1
28 6 1
29 6 1
30 6 1
31 6 1
32 6 1
33 6 1
34 6 1
35 6 1
36 6 1
37 6 1
38 6 1
39 6 1
40 6 1
41 6 1
42 6 1
43 6 1
44 6 1
45 6 1
46 6 1
47 6 1
48 6 1
49 6 1
0 7 1
1 7 1
2 7 1
3 7 1
4 7 1
5 7 1
6 7 1
7 7 1
8 7 1
9 7 1
10 7 1
11 7 1
12 7 1
13 7 1
14 7 1
15 7 1
16 7 1
17 7 1
18 7 1
19 7 1
20 7 1
21 7 1
22 7 1
23 7 1
24 7 1
25 7 1
26 7 1
27 7 1
28 7 1
29 7 1
30 7 1
31 7 1
32 7 1
33 7 1
34 7 1
35 7 1
36 7 1
37 7 1
38 7 1
39 7 1
40 7 1
41 7 1
42 7 1
43 7 1
44 7 1
45 7 1
46 7 1
47 7 1
48 7 1
49 7 1
0 8 1
1 8 1
2 8 1
3 8 1
4 8 1
5 8 1
6 8 1
7 8 1
8 8 1
9 8 1
10 8 1
11 8 1
12 8 1
13 8 1
14 8 1
15 8 1
16 8 1
17 8 1
18 8 1
19 8 1
20 8 1
21 8 1
22 8 1
23 8 1
24 8 1
25 8 1
26 8 1
27 8 1
28 8 1
29 8 1
30 8 1
31 8 1
32 8 1
33 8 1
34 8 1
35 8 1
36 8 1
37 8 1
38 8 1
39 8 1
40 8 1
41 8 1
42 8 1
43 8 1
44 8 1
45 8 1
46 8 1
47 8 1
48 8 1
49 8 1
0 9 1
1 9 1
2 9 1
3 9 1
4 9 1
5 9 1
6 9 1
7 9 1
8 9 1
9 9 1
10 9 1
11 9 1
12 9 1
13 9 1
14 9 1
15 9 1
16 9 1
17 9 1
18 9 1
19 9 1
20 9 1
21 9 1
22 9 1
23 9 1
24 9 1
25 9 1
26 9 1
27 9 1
28 9 1
29 9 1
30 9 1
31 9 1
32 9 1
33 9 1
34 9 1
35 9 1
36 9 1
37 9 1
38 9 1
39 9 1
40 9 1
41 9 1
42 9 1
43 9 1
44 9 1
45 9 1
46 9 1
47 9 1
48 9 1
49 9 1
0 0 2
1 0 2
2 0 2
3 0 2
4 0 2
5 0 2
6 0 2
7 0 2
8 0 2
9 0 2
10 0 2
11 0 2
12 0 2
13 0 2
14 0 2
15 0 2
16 0 2
17 0 2
18 0 2
19 0 2
20 0 2
21 0 2
22 0 2
23 0 2
24 0 2
25 0 2
26 0 2
27 0 2
28 0 2
29 0 2
30 0 2
31 0 2
32 0 2
33 0 2
34 0 2
35 0 2
36 0 2
37 0 2
38 0 2
39 0 2
40 0 2
41 0 2
42 0 2
43 0 2
44 0 2
45 0 2
46 0 2
47 0 2
48 0 2
49 0 2
0 1 2
1 1 2
2 1 2
3 1 2
4 1 2
5 1 2
6 1 2
7 1 2
8 1 2
9 1 2
10 1 2
11 1 2
12 1 2
13 1 2
14 1 2
15 1 2
16 1 2
17 1 2
18 1 2
19 1 2
20 1 2
21 1 2
22 1 2
23 1 2
24 1 2
25 1 2
26 1 2
27 1 2
28 1 2
29 1 2
30 1 2
31 1 2
32 1 2
33 1 2
34 1 2
35 1 2
36 1 2
37 1 2
38 1 2
39 1 2
40 1 2
41 1 2
42 1 2
43 1 2
44 1 2
45 1 2
46 1 2
47 1 2
48 1 2
49 1 2
0 2 2
1 2 2
2 2 2
3 2 2
4 2 2
5 2 2
6 2 2
7 2 2
8 2 2
9 2 2
10 2 2
11 2 2
12 2 2
13 2 2
14 2 2
15 2 2
16 2 2
17 2 2
18 2 2
19 2 2
20 2 2
21 2 2
22 2 2
23 2 2
24 2 2
25 2 2
26 2 2
27 2 2
28 2 2
29 2 2
30 2 2
31 2 2
32 2 2
33 2 2
34 2 2
35 2 2
36 2 2
37 2 2
38 2 2
39 2 2
40 2 2
41 2 2
42 2 2
43 2 2
44 2 2
45 2 2
46 2 2
47 2 2
48 2 2
49 2 2
0 3 2
1 3 2
2 3 2
3 3 2
4 3 2
5 3 2
6 3 2
7 3 2
8 3 2
9 3 2
10 3 2
11 3 2
12 3 2
13 3 2
14 3 2
15 3 2
16 3 2
17 3 2
18 3 2
19 3 2
20 3 2
21 3 2
22 3 2
23 3 2
24 3 2
25 3 2
26 3 2
27 3 2
28 3 2
29 3 2
30 3 2
31 3 2
32 3 2
33 3 2
34 3 2
35 3 2
36 3 2
37 3 2
38 3 2
39 3 2
40 3 2
41 3 2
42 3 2
43 3 2
44 3 2
45 3 2
46 3 2
47 3 2
48 3 2
49 3 2
0 4 2
1 4 2
2 4 2
3 4 2
4 4 2
5 4 2
6 4 2
7 4 2
8 4 2
9 4 2
10 4 2
11 4 2
12 4 2
13 4 2
14 4 2
15 4 2
16 4 2
17 4 2
18 4 2
19 4 2
20 4 2
21 4 2
22 4 2
23 4 2
24 4 2
25 4 2
26 4 2
27 4 2
28 4 2
29 4 2
30 4 2
31 4 2
32 4 2
33 4 2
34 4 2
35 4 2
36 4 2
37 4 2
38 4 2
39 4 2
40 4 2
41 4 2
42 4 2
43 4 2
44 4 2
45 4 2
46 4 2
47 4 2
48 4 2
49 4 2
0 5 2
1 5 2
2 5 2
3 5 2
4 5 2
5 5 2
6 5 2
7 5 2
8 5 2
9 5 2
10 5 2
11 5 2
12 5 2
13 5 2
14 5 2
15 5 2
16 5 2
17 5 2
18 5 2
19 5 2
20 5 2
21 5 2
22 5 2
23 5 2
24 5 2
25 5 2
26 5 2
27 5 2
28 5 2
29 5 2
30 5 2
31 5 2
32 5 2
33 5 2
34 5 2
35 5 2
36 5 2
37 5 2
38 5 2
39 5 2
40 5 2
41 5 2
42 5 2
43 5 2
44 5 2
45 5 2
46 5 2
47 5 2
48 5 2
49 5 2
0 6 2
1 6 2
2 6 2
3 6 2
4 6 2
5 6 2
6 6 2
7 6 2
8 6 2
9 6 2
10 6 2
11 6 2
12 6 2
13 6 2
14 6 2
15 6 2
16 6 2
17 6 2
18 6 2
19 6 2
20 6 2
21 6 2
22 6 2
23 6 2
24 6 2
25 6 2
26 6 2
27 6 2
28 6 2
29 6 2
30 6 2
31 6 2
32 6 2
33 6 2
34 6 2
35 6 2
36 6 2
37 6 2
38 6 2
39 6 2
40 6 2
41 6 2
42 6 2
43 6 2
44 6 2
45 6 2
46 6 2
47 6 2
48 6 2
49 6 2
0 7 2
1 7 2
2 7 2
3 7 2
4 7 2
5 7 2
6 7 2
7 7 2
8 7 2
9 7 2
10 7 2
11 7 2
12 7 2
13 7 2
14 7 2
15 7 2
16 7 2
17 7 2
18 7 2
19 7 2
20 7 2
21 7 2
22 7 2
23 7 2
24 7 2
25 7 2
26 7 2
27 7 2
28 7 2
29 7 2
30 7 2
31 7 2
32 7 2
33 7 2
34 7 2
35 7 2
36 7 2
37 7 2
38 7 2
39 7 2
40 7 2
41 7 2
42 7 2
43 7 2
44 7 2
45 7 2
46 7 2
47 7 2
48 7 2
49 7 2
0 8 2
1 8 2
2 8 2
3 8 2
4 8 2
5 8 2
6 8 2
7 8 2
8 8 2
9 8 2
10 8 2
11 8 2
12 8 2
13 8 2
14 8 2
15 8 2
16 8 2
17 8 2
18 8 2
19 8 2
20 8 2
21 8 2
22 8 2
23 8 2
24 8 2
25 8 2
26 8 2
27 8 2
28 8 2
29 8 2
30 8 2
31 8 2
32 8 2
33 8 2
34 8 2
35 8 2
36 8 2
37 8 2
38 8 2
39 8 2
40 8 2
41 8 2
42 8 2
43 8 2
44 8 2
45 8 2
46 8 2
47 8 2
48 8 2
49 8 2
0 9 2
1 9 2
2 9 2
3 9 2
4 9 2
[...]
POINT_DATA 15000
SCALARS sol61 float
LOOKUP_TABLE default
50.4419
50.4388
50.4358
50.4327
50.4297
50.4266
50.4236
50.4205
50.4175
50.4145
50.4114
50.4084
50.4053
50.4023
50.3992
50.3962
50.3931
50.3901
50.3871
50.384
50.381
50.3779
50.3749
50.3719
50.3688
50.3658
50.3627
50.3597
50.3567
50.3536
50.3506
50.3476
50.3445
50.3415
50.3384
50.3354
50.3324
50.3293
50.3263
50.3233
50.3202
50.3172
50.3142
50.3111
50.3081
50.3051
50.3021
50.299
50.296
50.293
50.2899
50.2869
50.2839
50.2808
50.2778
50.2748
50.2718
50.2687
50.2657
50.2627
50.2597
50.2566
50.2536
50.2506
50.2476
50.2445
50.2415
50.2385
50.2355
50.2325
50.2294
50.2264
50.2234
50.2204
50.2174
50.2143
50.2113
50.2083
50.2053
50.2023
50.1993
50.1962
50.1932
50.1902
50.1872
50.1842
50.1812
50.1781
50.1751
50.1721
50.1691
50.1661
50.1631
50.1601
50.1571
50.154
50.151
50.148
50.145
50.142
50.139
50.136
50.133
50.13
50.127
50.124
50.121
50.1179
50.1149
50.1119
50.1089
50.1059
50.1029
50.0999
50.0969
50.0939
50.0909
50.0879
50.0849
50.0819
50.0789
50.0759
50.0729
50.0699
50.0669
50.0639
50.0609
50.0579
50.0549
50.0519
50.0489
50.0459
50.0429
50.0399
50.0369
50.0339
50.0309
50.028
50.025
50.022
50.019
50.016
50.013
50.01
50.007
50.004
50.001
49.998
49.995
49.9921
49.9891
49.9861
49.9831
49.9801
49.9771
49.9741
49.9711
49.9682
49.9652
49.9622
49.9592
49.9562
49.9532
49.9503
49.9473
49.9443
49.9413
49.9383
49.9353
49.9324
49.9294
49.9264
49.9234
49.9204
49.9175
49.9145
49.9115
49.9085
49.9055
49.9026
49.8996
49.8966
49.8936
49.8907
49.8877
49.8847
49.8817
49.8788
49.8758
49.8728
49.8698
49.8669
49.8639
49.8609
49.858
49.855
49.852
49.849
49.8461
49.8431
49.8401
49.8372
49.8342
49.8312
49.8283
49.8253
49.8223
49.8194
49.8164
49.8134
49.8105
49.8075
49.8045
49.8016
49.7986
49.7957
49.7927
49.7897
49.7868
49.7838
49.7808
49.7779
49.7749
49.772
49.769
49.766
49.7631
49.7601
49.7572
49.7542
49.7513
49.7483
49.7453
49.7424
49.7394
49.7365
49.7335
49.7306
49.7276
49.7247
49.7217
49.7188
49.7158
49.7129
49.7099
49.707
49.704
49.7011
49.6981
49.6952
49.6922
49.6893
49.6863
49.6834
49.6804
49.6775
49.6745
49.6716
49.6686
49.6657
49.6627
49.6598
49.6569
49.6539
49.651
49.648
49.6451
49.6421
49.6392
49.6363
49.6333
49.6304
49.6274
49.6245
49.6216
49.6186
49.6157
49.6127
49.6098
49.6069
49.6039
49.601
49.5981
49.5951
49.5922
49.5892
49.5863
49.5834
49.5804
49.5775
49.5746
49.5716
49.5687
49.5658
49.5629
49.5599
49.557
49.5541
49.5511
49.5482
49.5453
49.5423
49.5394
49.5365
49.5336
49.5306
49.5277
49.5248
49.5219
49.5189
49.516
49.5131
49.5102
49.5072
49.5043
49.5014
49.4985
49.4955
49.4926
49.4897
49.4868
49.4839
49.4809
49.478
49.4751
49.4722
49.4693
49.4663
49.4634
49.4605
49.4576
49.4547
49.4517
49.4488
49.4459
49.443
49.4401
49.4372
49.4343
49.4313
49.4284
49.4255
49.4226
49.4197
49.4168
49.4139
49.411
49.4081
49.4051
49.4022
49.3993
49.3964
49.3935
49.3906
49.3877
49.3848
49.3819
49.379
49.3761
49.3732
49.3703
49.3673
49.3644
49.3615
49.3586
49.3557
49.3528
49.3499
49.347
49.3441
49.3412
49.3383
49.3354
49.3325
49.3296
49.3267
49.3238
49.3209
49.318
49.3151
49.3122
49.3093
49.3064
49.3035
49.3006
49.2977
49.2948
49.292
49.2891
49.2862
49.2833
49.2804
49.2775
49.2746
49.2717
49.2688
49.2659
49.263
49.2601
49.2572
49.2544
49.2515
49.2486
49.2457
49.2428
49.2399
49.237
49.2341
49.2313
49.2284
49.2255
49.2226
49.2197
49.2168
49.2139
49.2111
49.2082
49.2053
49.2024
49.1995
49.1966
49.1938
49.1909
49.188
49.1851
49.1822
49.1794
49.1765
49.1736
49.1707
49.1679
49.165
49.1621
49.1592
49.1563
49.1535
49.1506
49.1477
49.1448
49.142
49.1391
49.1362
49.1333
49.1305
49.1276
49.1247
49.1219
49.119
49.1161
49.1132
49.1104
49.1075
49.1046
49.1018
49.0989
49.096
49.0932
49.0903
49.0874
49.0846
49.0817
49.0788
49.076
49.0731
49.0702
49.0674
49.0645
49.0616
49.0588
49.0559
49.0531
49.0502
49.0473
49.0445
49.0416
49.0388
49.0359
49.033
49.0302
49.0273
49.0245
49.0216
49.0187
49.0159
49.013
49.0102
49.0073
49.0045
49.0016
48.9988
48.9959
48.993
48.9902
48.9873
48.9845
48.9816
48.9788
48.9759
48.9731
48.9702
48.9674
48.9645
48.9617
48.9588
48.956
48.9531
48.9503
48.9474
48.9446
48.9417
48.9389
48.936
48.9332
48.9304
48.9275
48.9247
48.9218
48.919
48.9161
48.9133
48.9104
48.9076
48.9048
48.9019
48.8991
48.8962
48.8934
48.8906
48.8877
48.8849
48.882
48.8792
48.8764
48.8735
48.8707
48.8679
48.865
48.8622
48.8593
48.8565
48.8537
48.8508
48.848
48.8452
48.8423
48.8395
48.8367
48.8338
48.831
48.8282
48.8253
48.8225
48.8197
48.8169
48.814
48.8112
48.8084
48.8055
48.8027
48.7999
48.7971
48.7942
48.7914
48.7886
48.7857
48.7829
48.7801
48.7773
48.7745
48.7716
48.7688
48.766
48.7632
48.7603
48.7575
48.7547
48.7519
48.7491
48.7462
48.7434
48.7406
48.7378
48.735
48.7321
48.7293
48.7265
48.7237
48.7209
48.7181
48.7152
48.7124
48.7096
48.7068
48.704
48.7012
48.6983
48.6955
48.6927
48.6899
48.6871
48.6843
48.6815
48.6787
48.6759
48.673
48.6702
48.6674
48.6646
48.6618
48.659
48.6562
48.6534
48.6506
48.6478
48.645
48.6422
48.6393
48.6365
48.6337
48.6309
48.6281
48.6253
48.6225
48.6197
48.6169
48.6141
48.6113
48.6085
48.6057
48.6029
48.6001
48.5973
48.5945
48.5917
48.5889
48.5861
48.5833
48.5805
48.5777
48.5749
48.5721
48.5693
48.5665
48.5637
48.561
48.5582
48.5554
48.5526
48.5498
48.547
48.5442
48.5414
48.5386
48.5358
48.533
48.5302
48.5274
48.5247
48.5219
48.5191
48.5163
48.5135
48.5107
48.5079
48.5051
48.5024
48.4996
48.4968
48.494
48.4912
48.4884
48.4856
48.4829
48.4801
48.4773
48.4745
48.4717
48.4689
48.4662
48.4634
48.4606
48.4578
48.455
48.4523
48.4495
48.4467
48.4439
48.4411
48.4384
48.4356
48.4328
48.43
48.4273
48.4245
48.4217
48.4189
48.4162
48.4134
48.4106
48.4078
48.4051
48.4023
48.3995
48.3967
48.394
48.3912
48.3884
48.3857
48.3829
48.3801
48.3774
48.3746
48.3718
48.369
48.3663
48.3635
48.3607
48.358
48.3552
48.3524
48.3497
48.3469
48.3441
48.3414
48.3386
48.3359
48.3331
48.3303
48.3276
48.3248
48.322
48.3193
48.3165
48.3138
48.311
48.3082
48.3055
48.3027
48.3
48.2972
48.2944
48.2917
48.2889
48.2862
48.2834
48.2807
48.2779
48.2752
48.2724
48.2696
48.2669
48.2641
48.2614
48.2586
48.2559
48.2531
48.2504
48.2476
48.2449
48.2421
48.2394
48.2366
48.2339
48.2311
48.2284
48.2256
48.2229
48.2201
48.2174
48.2146
48.2119
48.2091
48.2064
48.2037
48.2009
48.1982
48.1954
48.1927
48.1899
48.1872
48.1844
48.1817
48.179
48.1762
48.1735
48.1707
48.168
48.1653
48.1625
48.1598
48.157
48.1543
48.1516
48.1488
48.1461
48.1434
48.1406
48.1379
48.1351
48.1324
48.1297
48.1269
48.1242
48.1215
48.1187
48.116
48.1133
48.1105
48.1078
48.1051
48.1023
48.0996
48.0969
48.0942
48.0914
48.0887
48.086
48.0832
48.0805
48.0778
48.0751
48.0723
48.0696
48.0669
48.0642
48.0614
48.0587
48.056
48.0533
48.0505
48.0478
48.0451
48.0424
48.0396
48.0369
48.0342
48.0315
48.0288
48.026
48.0233
48.0206
48.0179
48.0152
48.0124
48.0097
48.007
48.0043
48.0016
47.9988
47.9961
47.9934
47.9907
47.988
47.9853
47.9826
47.9798
47.9771
47.9744
47.9717
47.969
47.9663
47.9636
47.9609
47.9581
47.9554
47.9527
47.95
47.9473
47.9446
47.9419
47.9392
47.9365
47.9338
47.9311
47.9283
47.9256
47.9229
47.9202
47.9175
47.9148
47.9121
47.9094
47.9067
47.904
47.9013
47.8986
47.8959
47.8932
47.8905
47.8878
47.8851
47.8824
47.8797
47.877
47.8743
47.8716
47.8689
47.8662
47.8635
47.8608
47.8581
47.8554
47.8527
47.85
47.8473
47.8446
47.8419
47.8392
47.8365
47.8338
47.8312
47.8285
47.8258
47.8231
47.8204
47.8177
47.815
47.8123
47.8096
47.8069
47.8042
47.8016
47.7989
47.7962
47.7935
47.7908
47.7881
47.7854
47.7827
47.7801
47.7774
47.7747
47.772
47.7693
47.7666
47.7639
47.7613
47.7586
47.7559
47.7532
47.7505
47.7478
47.7452
47.7425
47.7398
47.7371
47.7344
47.7318
47.7291
47.7264
47.7237
47.7211
47.7184
47.7157
47.713
47.7103
47.7077
47.705
47.7023
47.6996
47.697
47.6943
47.6916
47.6889
47.6863
47.6836
47.6809
47.6783
47.6756
47.6729
47.6702
47.6676
47.6649
47.6622
47.6596
47.6569
47.6542
47.6516
47.6489
47.6462
47.6436
47.6409
47.6382
47.6356
47.6329
47.6302
47.6276
47.6249
47.6222
47.6196
47.6169
47.6143
47.6116
47.6089
47.6063
47.6036
47.6009
47.5983
47.5956
47.593
47.5903
47.5876
47.585
47.5823
47.5797
47.577
47.5744
47.5717
47.569
47.5664
47.5637
47.5611
47.5584
47.5558
47.5531
47.5505
47.5478
47.5452
47.5425
47.5398
47.5372
47.5345
47.5319
47.5292
47.5266
47.5239
47.5213
47.5186
47.516
47.5133
47.5107
47.508
47.5054
47.5028
47.5001
47.4975
47.4948
47.4922
47.4895
47.4869
47.4842
47.4816
47.4789
47.4763
47.4737
47.471
47.4684
47.4657
47.4631
47.4605
47.4578
47.4552
47.4525
47.4499
47.4473
47.4446
47.442
47.4393
47.4367
47.4341
47.4314
47.4288
47.4262
47.4235
47.4209
47.4182
47.4156
47.413
47.4103
47.4077
47.4051
47.4024
47.3998
47.3972
47.3946
47.3919
47.3893
47.3867
47.384
47.3814
47.3788
47.3761
47.3735
47.3709
47.3683
47.3656
47.363
47.3604
47.3577
47.3551
47.3525
47.3499
47.3472
47.3446
47.342
47.3394
47.3367
47.3341
47.3315
47.3289
47.3263
47.3236
47.321
47.3184
47.3158
47.3132
47.3105
47.3079
47.3053
47.3027
47.3001
47.2974
47.2948
47.2922
47.2896
47.287
47.2844
47.2817
47.2791
47.2765
47.2739
47.2713
47.2687
47.2661
47.2634
47.2608
47.2582
47.2556
47.253
47.2504
47.2478
47.2452
47.2426
47.2399
47.2373
47.2347
47.2321
47.2295
47.2269
47.2243
47.2217
47.2191
47.2165
47.2139
47.2113
47.2087
47.206
47.2034
47.2008
47.1982
47.1956
47.193
47.1904
47.1878
47.1852
47.1826
47.18
47.1774
47.1748
47.1722
47.1696
47.167
47.1644
47.1618
47.1592
47.1566
47.154
47.1514
47.1488
47.1462
47.1436
47.141
47.1385
47.1359
47.1333
47.1307
47.1281
47.1255
47.1229
47.1203
47.1177
47.1151
47.1125
47.1099
47.1073
47.1047
47.1022
47.0996
47.097
47.0944
47.0918
47.0892
47.0866
47.084
47.0815
47.0789
47.0763
47.0737
47.0711
47.0685
47.0659
47.0634
47.0608
47.0582
47.0556
47.053
47.0504
47.0479
47.0453
47.0427
47.0401
47.0375
47.0349
47.0324
47.0298
47.0272
47.0246
47.022
47.0195
47.0169
47.0143
47.0117
47.0092
47.0066
47.004
47.0014
46.9989
46.9963
46.9937
46.9911
46.9886
46.986
46.9834
46.9808
46.9783
46.9757
46.9731
46.9706
46.968
46.9654
46.9628
46.9603
46.9577
46.9551
46.9526
46.95
46.9474
46.9449
46.9423
46.9397
46.9372
46.9346
46.932
46.9295
46.9269
46.9243
46.9218
46.9192
46.9166
46.9141
46.9115
46.909
46.9064
46.9038
46.9013
46.8987
46.8961
46.8936
46.891
46.8885
46.8859
46.8834
46.8808
46.8782
46.8757
46.8731
46.8706
46.868
46.8655
46.8629
46.8603
46.8578
46.8552
46.8527
46.8501
46.8476
46.845
46.8425
46.8399
46.8374
46.8348
46.8323
46.8297
46.8272
46.8246
46.8221
46.8195
46.817
46.8144
46.8119
46.8093
46.8068
46.8042
46.8017
46.7991
46.7966
46.794
46.7915
46.7889
46.7864
46.7838
46.7813
46.7788
46.7762
46.7737
46.7711
46.7686
46.766
46.7635
46.761
46.7584
46.7559
46.7533
46.7508
46.7483
46.7457
46.7432
46.7407
46.7381
46.7356
46.733
46.7305
46.728
46.7254
46.7229
46.7204
46.7178
46.7153
46.7128
46.7102
46.7077
46.7052
46.7026
46.7001
46.6976
46.695
46.6925
46.69
46.6874
46.6849
46.6824
46.6798
46.6773
46.6748
46.6723
46.6697
46.6672
46.6647
46.6621
46.6596
46.6571
46.6546
46.652
46.6495
46.647
46.6445
46.6419
46.6394
46.6369
46.6344
46.6319
46.6293
46.6268
46.6243
46.6218
46.6192
46.6167
46.6142
46.6117
46.6092
46.6067
46.6041
46.6016
46.5991
46.5966
46.5941
46.5915
46.589
46.5865
46.584
46.5815
46.579
46.5765
46.5739
46.5714
46.5689
46.5664
46.5639
46.5614
46.5589
46.5564
46.5538
46.5513
46.5488
46.5463
46.5438
46.5413
46.5388
46.5363
46.5338
46.5313
46.5288
46.5262
46.5237
46.5212
46.5187
46.5162
46.5137
46.5112
46.5087
46.5062
46.5037
46.5012
46.4987
46.4962
46.4937
46.4912
46.4887
46.4862
46.4837
46.4812
46.4787
46.4762
46.4737
46.4712
46.4687
46.4662
46.4637
46.4612
46.4587
46.4562
46.4537
46.4512
46.4487
46.4462
46.4437
46.4412
46.4387
46.4362
46.4337
46.4312
46.4287
46.4263
46.4238
46.4213
46.4188
46.4163
46.4138
46.4113
46.4088
46.4063
46.4038
46.4014
46.3989
46.3964
46.3939
46.3914
46.3889
46.3864
46.3839
46.3815
46.379
46.3765
46.374
46.3715
46.369
46.3665
46.3641
46.3616
46.3591
46.3566
46.3541
46.3516
46.3492
46.3467
46.3442
46.3417
46.3392
46.3368
46.3343
46.3318
46.3293
46.3268
46.3244
46.3219
46.3194
46.3169
46.3145
46.312
46.3095
46.307
46.3046
46.3021
46.2996
46.2971
46.2947
46.2922
46.2897
46.2872
46.2848
46.2823
46.2798
46.2774
46.2749
46.2724
46.27
46.2675
46.265
46.2625
46.2601
46.2576
46.2551
46.2527
46.2502
46.2477
46.2453
46.2428
46.2403
46.2379
46.2354
46.2329
46.2305
46.228
46.2256
46.2231
46.2206
46.2182
46.2157
46.2132
46.2108
46.2083
46.2059
46.2034
46.2009
46.1985
46.196
46.1936
46.1911
46.1887
46.1862
46.1837
46.1813
46.1788
46.1764
46.1739
46.1715
46.169
46.1665
46.1641
46.1616
46.1592
46.1567
46.1543
46.1518
46.1494
46.1469
46.1445
46.142
46.1396
46.1371
46.1347
46.1322
46.1298
46.1273
46.1249
46.1224
46.12
46.1175
46.1151
46.1126
46.1102
46.1077
46.1053
46.1029
46.1004
46.098
46.0955
46.0931
46.0906
46.0882
46.0857
46.0833
46.0809
46.0784
46.076
46.0735
46.0711
46.0687
46.0662
46.0638
46.0613
46.0589
46.0565
46.054
46.0516
46.0491
46.0467
46.0443
46.0418
46.0394
46.037
46.0345
46.0321
46.0297
46.0272
46.0248
46.0224
46.0199
46.0175
46.0151
46.0126
46.0102
46.0078
46.0053
46.0029
46.0005
45.998
45.9956
45.9932
45.9908
45.9883
45.9859
45.9835
45.981
45.9786
45.9762
45.9738
45.9713
45.9689
45.9665
45.9641
45.9616
45.9592
45.9568
45.9544
45.9519
45.9495
45.9471
45.9447
45.9423
45.9398
45.9374
45.935
45.9326
45.9302
45.9277
45.9253
45.9229
45.9205
45.9181
45.9156
45.9132
45.9108
45.9084
45.906
45.9036
45.9011
45.8987
45.8963
45.8939
45.8915
45.8891
45.8867
45.8842
45.8818
45.8794
45.877
45.8746
45.8722
45.8698
45.8674
45.865
45.8625
45.8601
45.8577
45.8553
45.8529
45.8505
45.8481
45.8457
45.8433
45.8409
45.8385
45.8361
45.8337
45.8313
45.8288
45.8264
45.824
45.8216
45.8192
45.8168
45.8144
45.812
45.8096
45.8072
45.8048
45.8024
45.8
45.7976
45.7952
45.7928
45.7904
45.788
45.7856
45.7832
45.7808
45.7784
45.776
45.7736
45.7712
45.7688
45.7664
45.7641
45.7617
45.7593
45.7569
45.7545
45.7521
45.7497
45.7473
45.7449
45.7425
45.7401
45.7377
45.7353
45.7329
45.7306
45.7282
45.7258
45.7234
45.721
45.7186
45.7162
45.7138
45.7114
45.7091
45.7067
45.7043
45.7019
45.6995
45.6971
45.6947
45.6924
45.69
45.6876
45.6852
45.6828
45.6804
45.6781
45.6757
45.6733
45.6709
45.6685
45.6662
45.6638
45.6614
45.659
45.6566
45.6543
45.6519
45.6495
45.6471
45.6447
45.6424
45.64
45.6376
45.6352
45.6329
45.6305
45.6281
45.6257
45.6234
45.621
45.6186
45.6162
45.6139
45.6115
45.6091
45.6068
45.6044
45.602
45.5996
45.5973
45.5949
45.5925
45.5902
45.5878
45.5854
45.5831
45.5807
45.5783
45.576
45.5736
45.5712
45.5689
45.5665
45.5641
45.5618
45.5594
45.557
45.5547
45.5523
45.5499
45.5476
45.5452
45.5429
45.5405
45.5381
45.5358
45.5334
45.531
45.5287
45.5263
45.524
45.5216
45.5192
45.5169
45.5145
45.5122
45.5098
45.5075
45.5051
45.5027
45.5004
45.498
45.4957
45.4933
45.491
45.4886
45.4863
45.4839
45.4816
45.4792
45.4769
45.4745
45.4721
45.4698
45.4674
45.4651
45.4627
45.4604
45.458
45.4557
45.4533
45.451
45.4487
45.4463
45.444
45.4416
45.4393
45.4369
45.4346
45.4322
45.4299
45.4275
45.4252
45.4228
45.4205
45.4182
45.4158
45.4135
45.4111
45.4088
45.4064
45.4041
45.4018
45.3994
45.3971
45.3947
45.3924
45.3901
45.3877
45.3854
45.383
45.3807
45.3784
45.376
45.3737
45.3714
45.369
45.3667
45.3644
45.362
45.3597
45.3574
45.355
45.3527
45.3504
45.348
45.3457
45.3434
45.341
45.3387
45.3364
45.334
45.3317
45.3294
45.327
45.3247
45.3224
45.32
45.3177
45.3154
45.3131
45.3107
45.3084
45.3061
45.3038
45.3014
45.2991
45.2968
45.2945
45.2921
45.2898
45.2875
45.2852
45.2828
45.2805
45.2782
45.2759
45.2735
45.2712
45.2689
45.2666
45.2643
45.2619
45.2596
45.2573
45.255
45.2527
45.2504
45.248
45.2457
45.2434
45.2411
45.2388
45.2364
45.2341
45.2318
45.2295
45.2272
45.2249
45.2226
45.2202
45.2179
45.2156
45.2133
45.211
45.2087
45.2064
45.2041
45.2017
45.1994
45.1971
45.1948
45.1925
45.1902
45.1879
45.1856
45.1833
45.181
45.1787
45.1764
45.174
45.1717
45.1694
45.1671
45.1648
45.1625
45.1602
45.1579
45.1556
45.1533
45.151
45.1487
45.1464
45.1441
45.1418
45.1395
45.1372
45.1349
45.1326
45.1303
45.128
45.1257
45.1234
45.1211
45.1188
45.1165
45.1142
45.1119
45.1096
45.1073
45.105
45.1027
45.1004
45.0981
45.0958
45.0935
45.0912
45.0889
45.0867
45.0844
45.0821
45.0798
45.0775
45.0752
45.0729
45.0706
45.0683
45.066
45.0637
45.0614
45.0592
45.0569
45.0546
45.0523
45.05
45.0477
45.0454
45.0431
45.0409
45.0386
45.0363
45.034
45.0317
45.0294
45.0271
45.0249
45.0226
45.0203
45.018
45.0157
45.0134
45.0112
45.0089
45.0066
45.0043
45.002
44.9998
44.9975
44.9952
44.9929
44.9906
44.9884
44.9861
44.9838
44.9815
44.9793
44.977
44.9747
44.9724
44.9702
44.9679
44.9656
44.9633
44.9611
44.9588
44.9565
44.9542
44.952
44.9497
44.9474
44.9451
44.9429
44.9406
44.9383
44.9361
44.9338
44.9315
44.9292
44.927
44.9247
44.9224
44.9202
44.9179
44.9156
44.9134
44.9111
44.9088
44.9066
44.9043
44.902
44.8998
44.8975
44.8953
44.893
44.8907
44.8885
44.8862
44.8839
44.8817
44.8794
44.8771
44.8749
44.8726
44.8704
44.8681
44.8658
44.8636
44.8613
44.8591
44.8568
44.8546
44.8523
44.85
44.8478
44.8455
44.8433
44.841
44.8388
44.8365
44.8342
44.832
44.8297
44.8275
44.8252
44.823
44.8207
44.8185
44.8162
44.814
44.8117
44.8095
44.8072
44.805
44.8027
44.8005
44.7982
44.796
44.7937
44.7915
44.7892
44.787
44.7847
44.7825
44.7802
44.778
44.7757
44.7735
44.7713
44.769
44.7668
44.7645
44.7623
44.76
44.7578
44.7555
44.7533
44.7511
44.7488
44.7466
44.7443
44.7421
44.7399
44.7376
44.7354
44.7331
44.7309
44.7287
44.7264
44.7242
44.7219
44.7197
44.7175
44.7152
44.713
44.7108
44.7085
44.7063
44.7041
44.7018
44.6996
44.6974
44.6951
44.6929
44.6907
44.6884
44.6862
44.684
44.6817
44.6795
44.6773
44.675
44.6728
44.6706
44.6684
44.6661
44.6639
44.6617
44.6594
44.6572
44.655
44.6528
44.6505
44.6483
44.6461
44.6439
44.6416
44.6394
44.6372
44.635
44.6327
44.6305
44.6283
44.6261
44.6238
44.6216
44.6194
44.6172
44.615
44.6127
44.6105
44.6083
44.6061
44.6039
44.6016
44.5994
44.5972
44.595
44.5928
44.5905
44.5883
44.5861
44.5839
44.5817
44.5795
44.5772
44.575
44.5728
44.5706
44.5684
44.5662
44.564
44.5618
44.5595
44.5573
44.5551
44.5529
44.5507
44.5485
44.5463
44.5441
44.5419
44.5396
44.5374
44.5352
44.533
44.5308
44.5286
44.5264
44.5242
44.522
44.5198
44.5176
44.5154
44.5132
44.511
44.5087
44.5065
44.5043
44.5021
44.4999
44.4977
44.4955
44.4933
44.4911
44.4889
44.4867
44.4845
44.4823
44.4801
44.4779
44.4757
44.4735
44.4713
44.4691
44.4669
44.4647
44.4625
44.4603
44.4581
44.4559
44.4537
44.4515
44.4494
44.4472
44.445
44.4428
44.4406
44.4384
44.4362
44.434
44.4318
44.4296
44.4274
44.4252
44.423
44.4208
44.4187
44.4165
44.4143
44.4121
44.4099
44.4077
44.4055
44.4033
44.4011
44.399
44.3968
44.3946
44.3924
44.3902
44.388
44.3858
44.3837
44.3815
44.3793
44.3771
44.3749
44.3727
44.3706
44.3684
44.3662
44.364
44.3618
44.3596
44.3575
44.3553
44.3531
44.3509
44.3487
44.3466
44.3444
44.3422
44.34
44.3378
44.3357
44.3335
44.3313
44.3291
44.327
44.3248
44.3226
44.3204
44.3183
44.3161
44.3139
44.3117
44.3096
44.3074
44.3052
44.303
44.3009
44.2987
44.2965
44.2944
44.2922
44.29
44.2879
44.2857
44.2835
44.2813
44.2792
44.277
44.2748
44.2727
44.2705
44.2683
44.2662
44.264
44.2618
44.2597
44.2575
44.2553
44.2532
44.251
44.2488
44.2467
44.2445
44.2424
44.2402
44.238
44.2359
44.2337
44.2315
44.2294
44.2272
44.2251
44.2229
44.2207
44.2186
44.2164
44.2143
44.2121
44.21
44.2078
44.2056
44.2035
44.2013
44.1992
44.197
44.1949
44.1927
44.1905
44.1884
44.1862
44.1841
44.1819
44.1798
44.1776
44.1755
44.1733
44.1712
44.169
44.1669
44.1647
44.1626
44.1604
44.1583
44.1561
44.154
44.1518
44.1497
44.1475
44.1454
44.1432
44.1411
44.1389
44.1368
44.1346
44.1325
44.1304
44.1282
44.1261
44.1239
44.1218
44.1196
44.1175
44.1153
44.1132
44.1111
44.1089
44.1068
44.1046
44.1025
44.1004
44.0982
44.0961
44.0939
44.0918
44.0897
44.0875
44.0854
44.0832
44.0811
44.079
44.0768
44.0747
44.0726
44.0704
44.0683
44.0662
44.064
44.0619
44.0598
44.0576
44.0555
44.0534
44.0512
44.0491
44.047
44.0448
44.0427
44.0406
44.0384
44.0363
44.0342
44.032
44.0299
44.0278
44.0257
44.0235
44.0214
44.0193
44.0171
44.015
44.0129
44.0108
44.0086
44.0065
44.0044
44.0023
44.0001
43.998
43.9959
43.9938
43.9916
43.9895
43.9874
43.9853
43.9831
43.981
43.9789
43.9768
43.9747
43.9725
43.9704
43.9683
43.9662
43.9641
43.9619
43.9598
43.9577
43.9556
43.9535
43.9514
43.9492