# vtk DataFile Version 2.0
vtk output
ASCII
DATASET STRUCTURED_GRID
DIMENSIONS 50 10 30
POINTS 15000 float
0 0 0
1 0 0
2 0 0
3 0 0
4 0 0
5 0 0
6 0 0
7 0 0
8 0 0
9 0 0
10 0 0
11 0 0
12 0 0
13 0 0
14 0 0
15 0 0
16 0 0
17 0 0
18 0 0
19 0 0
20 0 0
21 0 0
22 0 0
23 0 0
24 0 0
25 0 0
26 0 0
27 0 0
28 0 0
29 0 0
30 0 0
31 0 0
32 0 0
33 0 0
34 0 0
35 0 0
36 0 0
37 0 0
38 0 0
39 0 0
40 0 0
41 0 0
42 0 0
43 0 0
44 0 0
45 0 0
46 0 0
47 0 0
48 0 0
49 0 0
0 1 0
1 1 0
2 1 0
3 1 0
4 1 0
5 1 0
6 1 0
7 1 0
8 1 0
9 1 0
10 1 0
11 1 0
12 1 0
13 1 0
14 1 0
15 1 0
16 1 0
17 1 0
18 1 0
19 1 0
20 1 0
21 1 0
22 1 0
23 1 0
24 1 0
25 1 0
26 1 0
27 1 0
28 1 0
29 1 0
30 1 0
31 1 0
32 1 0
33 1 0
34 1 0
35 1 0
36 1 0
37 1 0
38 1 0
39 1 0
40 1 0
41 1 0
42 1 0
43 1 0
44 1 0
45 1 0
46 1 0
47 1 0
48 1 0
49 1 0
0 2 0
1 2 0
2 2 0
3 2 0
4 2 0
5 2 0
6 2 0
7 2 0
8 2 0
9 2 0
10 2 0
11 2 0
12 2 0
13 2 0
14 2 0
15 2 0
16 2 0
17 2 0
18 2 0
19 2 0
20 2 0
21 2 0
22 2 0
23 2 0
24 2 0
25 2 0
26 2 0
27 2 0
28 2 0
29 2 0
30 2 0
31 2 0
32 2 0
33 2 0
34 2 0
35 2 0
36 2 0
37 2 0
38 2 0
39 2 0
40 2 0
41 2 0
42 2 0
43 2 0
44 2 0
45 2 0
46 2 0
47 2 0
48 2 0
49 2 0
0 3 0
1 3 0
2 3 0
3 3 0
4 3 0
5 3 0
6 3 0
7 3 0
8 3 0
9 3 0
10 3 0
11 3 0
12 3 0
13 3 0
14 3 0
15 3 0
16 3 0
17 3 0
18 3 0
19 3 0
20 3 0
21 3 0
22 3 0
23 3 0
24 3 0
25 3 0
26 3 0
27 3 0
28 3 0
29 3 0
30 3 0
31 3 0
32 3 0
33 3 0
34 3 0
35 3 0
36 3 0
37 3 0
38 3 0
39 3 0
40 3 0
41 3 0
42 3 0
43 3 0
44 3 0
45 3 0
46 3 0
47 3 0
48 3 0
49 3 0
0 4 0
1 4 0
2 4 0
3 4 0
4 4 0
5 4 0
6 4 0
7 4 0
8 4 0
9 4 0
10 4 0
11 4 0
12 4 0
13 4 0
14 4 0
15 4 0
16 4 0
17 4 0
18 4 0
19 4 0
20 4 0
21 4 0
22 4 0
23 4 0
24 4 0
25 4 0
26 4 0
27 4 0
28 4 0
29 4 0
30 4 0
31 4 0
32 4 0
33 4 0
34 4 0
35 4 0
36 4 0
37 4 0
38 4 0
39 4 0
40 4 0
41 4 0
42 4 0
43 4 0
44 4 0
45 4 0
46 4 0
47 4 0
48 4 0
49 4 0
0 5 0
1 5 0
2 5 0
3 5 0
4 5 0
5 5 0
6 5 0
7 5 0
8 5 0
9 5 0
10 5 0
11 5 0
12 5 0
13 5 0
14 5 0
15 5 0
16 5 0
17 5 0
18 5 0
19 5 0
20 5 0
21 5 0
22 5 0
23 5 0
24 5 0
25 5 0
26 5 0
27 5 0
28 5 0
29 5 0
30 5 0
31 5 0
32 5 0
33 5 0
34 5 0
35 5 0
36 5 0
37 5 0
38 5 0
39 5 0
40 5 0
41 5 0
42 5 0
43 5 0
44 5 0
45 5 0
46 5 0
47 5 0
48 5 0
49 5 0
0 6 0
1 6 0
2 6 0
3 6 0
4 6 0
5 6 0
6 6 0
7 6 0
8 6 0
9 6 0
10 6 0
11 6 0
12 6 0
13 6 0
14 6 0
15 6 0
16 6 0
17 6 0
18 6 0
19 6 0
20 6 0
21 6 0
22 6 0
23 6 0
24 6 0
25 6 0
26 6 0
27 6 0
28 6 0
29 6 0
30 6 0
31 6 0
32 6 0
33 6 0
34 6 0
35 6 0
36 6 0
37 6 0
38 6 0
39 6 0
40 6 0
41 6 0
42 6 0
43 6 0
44 6 0
45 6 0
46 6 0
47 6 0
48 6 0
49 6 0
0 7 0
1 7 0
2 7 0
3 7 0
4 7 0
5 7 0
6 7 0
7 7 0
8 7 0
9 7 0
10 7 0
11 7 0
12 7 0
13 7 0
14 7 0
15 7 0
16 7 0
17 7 0
18 7 0
19 7 0
20 7 0
21 7 0
22 7 0
23 7 0
24 7 0
25 7 0
26 7 0
27 7 0
28 7 0
29 7 0
30 7 0
31 7 0
32 7 0
33 7 0
34 7 0
35 7 0
36 7 0
37 7 0
38 7 0
39 7 0
40 7 0
41 7 0
42 7 0
43 7 0
44 7 0
45 7 0
46 7 0
47 7 0
48 7 0
49 7 0
0 8 0
1 8 0
2 8 0
3 8 0
4 8 0
5 8 0
6 8 0
7 8 0
8 8 0
9 8 0
10 8 0
11 8 0
12 8 0
13 8 0
14 8 0
15 8 0
16 8 0
17 8 0
18 8 0
19 8 0
20 8 0
21 8 0
22 8 0
23 8 0
24 8 0
25 8 0
26 8 0
27 8 0
28 8 0
29 8 0
30 8 0
31 8 0
32 8 0
33 8 0
34 8 0
35 8 0
36 8 0
37 8 0
38 8 0
39 8 0
40 8 0
41 8 0
42 8 0
43 8 0
44 8 0
45 8 0
46 8 0
47 8 0
48 8 0
49 8 0
0 9 0
1 9 0
2 9 0
3 9 0
4 9 0
5 9 0
6 9 0
7 9 0
8 9 0
9 9 0
10 9 0
11 9 0
12 9 0
13 9 0
14 9 0
15 9 0
16 9 0
17 9 0
18 9 0
19 9 0
20 9 0
21 9 0
22 9 0
23 9 0
24 9 0
25 9 0
26 9 0
27 9 0
28 9 0
29 9 0
30 9 0
31 9 0
32 9 0
33 9 0
34 9 0
35 9 0
36 9 0
37 9 0
38 9 0
39 9 0
40 9 0
41 9 0
42 9 0
43 9 0
44 9 0
45 9 0
46 9 0
47 9 0
48 9 0
49 9 0
0 0 1
1 0 1
2 0 1
3 0 1
4 0 1
5 0 1
6 0 1
7 0 1
8 0 1
9 0 1
10 0 1
11 0 1
12 0 1
13 0 1
14 0 1
15 0 1
16 0 1
17 0 1
18 0 1
19 0 1
20 0 1
21 0 1
22 0 1
23 0 1
24 0 1
25 0 1
26 0 1
27 0 1
28 0 1
29 0 1
30 0 1
31 0 1
32 0 1
33 0 1
34 0 1
35 0 1
36 0 1
37 0 1
38 0 1
39 0 1
40 0 1
41 0 1
42 0 1
43 0 1
44 0 1
45 0 1
46 0 1
47 0 1
48 0 1
49 0 1
0 1 1
1 1 1
2 1 1
3 1 1
4 1 1
5 1 1
6 1 1
7 1 1
8 1 1
9 1 1
10 1 1
11 1 1
12 1 1
13 1 1
14 1 1
15 1 1
16 1 1
17 1 1
18 1 1
19 1 1
20 1 1
21 1 1
22 1 1
23 1 1
24 1 1
25 1 1
26 1 1
27 1 1
28 1 1
29 1 1
30 1 1
31 1 1
32 1 1
33 1 1
34 1 1
35 1 1
36 1 1
37 1 1
38 1 1
39 1 1
40 1 1
41 1 1
42 1 1
43 1 1
44 1 1
45 1 1
46 1 1
47 1 1
48 1 1
49 1 1
0 2 1
1 2 1
2 2 1
3 2 1
4 2 1
5 2 1
6 2 1
7 2 1
8 2 1
9 2 1
10 2 1
11 2 1
12 2 1
13 2 1
14 2 1
15 2 1
16 2 1
17 2 1
18 2 1
19 2 1
20 2 1
21 2 1
22 2 1
23 2 1
24 2 1
25 2 1
26 2 1
27 2 1
28 2 1
29 2 1
30 2 1
31 2 1
32 2 1
33 2 1
34 2 1
35 2 1
36 2 1
37 2 1
38 2 1
39 2 1
40 2 1
41 2 1
42 2 1
43 2 1
44 2 1
45 2 1
46 2 1
47 2 1
48 2 1
49 2 1
0 3 1
1 3 1
2 3 1
3 3 1
4 3 1
5 3 1
6 3 1
7 3 1
8 3 1
9 3 1
10 3 1
11 3 1
12 3 1
13 3 1
14 3 1
15 3 1
16 3 1
17 3 1
18 3 1
19 3 1
20 3 1
21 3 1
22 3 1
23 3 1
24 3 1
25 3 1
26 3 1
27 3 1
28 3 1
29 3 1
30 3 1
31 3 1
32 3 1
33 3 1
34 3 1
35 3 1
36 3 1
37 3 1
38 3 1
39 3 1
40 3 1
41 3 1
42 3 1
43 3 1
44 3 1
45 3 1
46 3 1
47 3 1
48 3 1
49 3 1
0 4 1
1 4 1
2 4 1
3 4 1
4 4 1
5 4 1
6 4 1
7 4 1
8 4 1
9 4 1
10 4 1
11 4 1
12 4 1
13 4 1
14 4 1
15 4 1
16 4 1
17 4 1
18 4 1
19 4 1
20 4 1
21 4 1
22 4 1
23 4 1
24 4 1
25 4 1
26 4 1
27 4 1
28 4 1
29 4 1
30 4 1
31 4 1
32 4 1
33 4 1
34 4 1
35 4 1
36 4 1
37 4 1
38 4 1
39 4 1
40 4 1
41 4 1
42 4 1
43 4 1
44 4 1
45 4 1
46 4 1
47 4 1
48 4 1
49 4 1
0 5 1
1 5 1
2 5 1
3 5 1
4 5 1
5 5 1
6 5 1
7 5 1
8 5 1
9 5 1
10 5 1
11 5 1
12 5 1
13 5 1
14 5 1
15 5 1
16 5 1
17 5 1
18 5 1
19 5 1
20 5 1
21 5 1
22 5 1
23 5 1
24 5 1
25 5 1
26 5 1
27 5 1
28 5 1
29 5 1
30 5 1
31 5 1
32 5 1
33 5 1
34 5 1
35 5 1
36 5 1
37 5 1
38 5 1
39 5 1
40 5 1
41 5 1
42 5 1
43 5 1
44 5 1
45 5 1
46 5 1
47 5 1
48 5 1
49 5 1
0 6 1
1 6 1
2 6 1
3 6 1
4 6 1
5 6 1
6 6 1
7 6 1
8 6 1
9 6 1
10 6 1
11 6 1
12 6 1
13 6 1
14 6 1
15 6 1
16 6 1
17 6 1
18 6 1
19 6 1
20 6 1
21 6 1
22 6 1
23 6 1
24 6 1
25 6 1
26 6 1
27 6 1
28 6 1
29 6 1
30 6 1
31 6 1
32 6 1
33 6 1
34 6 1
35 6 1
36 6 1
37 6 1
38 6 1
39 6 1
40 6 1
41 6 1
42 6 1
43 6 1
44 6 1
45 6 1
46 6 1
47 6 1
48 6 1
49 6 1
0 7 1
1 7 1
2 7 1
3 7 1
4 7 1
5 7 1
6 7 1
7 7 1
8 7 1
9 7 1
10 7 1
11 7 1
12 7 1
13 7 1
14 7 1
15 7 1
16 7 1
17 7 1
18 7 1
19 7 1
20 7 1
21 7 1
22 7 1
23 7 1
24 7 1
25 7 1
26 7 1
27 7 1
28 7 1
29 7 1
30 7 1
31 7 1
32 7 1
33 7 1
34 7 1
35 7 1
36 7 1
37 7 1
38 7 1
39 7 1
40 7 1
41 7 1
42 7 1
43 7 1
44 7 1
45 7 1
46 7 1
47 7 1
48 7 1
49 7 1
0 8 1
1 8 1
2 8 1
3 8 1
4 8 1
5 8 1
6 8 1
7 8 1
8 8 1
9 8 1
10 8 1
11 8 1
12 8 1
13 8 1
14 8 1
15 8 1
16 8 1
17 8 1
18 8 1
19 8 1
20 8 1
21 8 1
22 8 1
23 8 1
24 8 1
25 8 1
26 8 1
27 8 1
28 8 1
29 8 1
30 8 1
31 8 1
32 8 1
33 8 1
34 8 1
35 8 1
36 8 1
37 8 1
38 8 1
39 8 1
40 8 1
41 8 1
42 8 1
43 8 1
44 8 1
45 8 1
46 8 1
47 8 1
48 8 1
49 8 1
0 9 1
1 9 1
2 9 1
3 9 1
4 9 1
5 9 1
6 9 1
7 9 1
8 9 1
9 9 1
10 9 1
11 9 1
12 9 1
13 9 1
14 9 1
15 9 1
16 9 1
17 9 1
18 9 1
19 9 1
20 9 1
21 9 1
22 9 1
23 9 1
24 9 1
25 9 1
26 9 1
27 9 1
28 9 1
29 9 1
30 9 1
31 9 1
32 9 1
33 9 1
34 9 1
35 9 1
36 9 1
37 9 1
38 9 1
39 9 1
40 9 1
41 9 1
42 9 1
43 9 1
44 9 1
45 9 1
46 9 1
47 9 1
48 9 1
49 9 1
0 0 2
1 0 2
2 0 2
3 0 2
4 0 2
5 0 2
6 0 2
7 0 2
8 0 2
9 0 2
10 0 2
11 0 2
12 0 2
13 0 2
14 0 2
15 0 2
16 0 2
17 0 2
18 0 2
19 0 2
20 0 2
21 0 2
22 0 2
23 0 2
24 0 2
25 0 2
26 0 2
27 0 2
28 0 2
29 0 2
30 0 2
31 0 2
32 0 2
33 0 2
34 0 2
35 0 2
36 0 2
37 0 2
38 0 2
39 0 2
40 0 2
41 0 2
42 0 2
43 0 2
44 0 2
45 0 2
46 0 2
47 0 2
48 0 2
49 0 2
0 1 2
1 1 2
2 1 2
3 1 2
4 1 2
5 1 2
6 1 2
7 1 2
8 1 2
9 1 2
10 1 2
11 1 2
12 1 2
13 1 2
14 1 2
15 1 2
16 1 2
17 1 2
18 1 2
19 1 2
20 1 2
21 1 2
22 1 2
23 1 2
24 1 2
25 1 2
26 1 2
27 1 2
28 1 2
29 1 2
30 1 2
31 1 2
32 1 2
33 1 2
34 1 2
35 1 2
36 1 2
37 1 2
38 1 2
39 1 2
40 1 2
41 1 2
42 1 2
43 1 2
44 1 2
45 1 2
46 1 2
47 1 2
48 1 2
49 1 2
0 2 2
1 2 2
2 2 2
3 2 2
4 2 2
5 2 2
6 2 2
7 2 2
8 2 2
9 2 2
10 2 2
11 2 2
12 2 2
13 2 2
14 2 2
15 2 2
16 2 2
17 2 2
18 2 2
19 2 2
20 2 2
21 2 2
22 2 2
23 2 2
24 2 2
25 2 2
26 2 2
27 2 2
28 2 2
29 2 2
30 2 2
31 2 2
32 2 2
33 2 2
34 2 2
35 2 2
36 2 2
37 2 2
38 2 2
39 2 2
40 2 2
41 2 2
42 2 2
43 2 2
44 2 2
45 2 2
46 2 2
47 2 2
48 2 2
49 2 2
0 3 2
1 3 2
2 3 2
3 3 2
4 3 2
5 3 2
6 3 2
7 3 2
8 3 2
9 3 2
10 3 2
11 3 2
12 3 2
13 3 2
14 3 2
15 3 2
16 3 2
17 3 2
18 3 2
19 3 2
20 3 2
21 3 2
22 3 2
23 3 2
24 3 2
25 3 2
26 3 2
27 3 2
28 3 2
29 3 2
30 3 2
31 3 2
32 3 2
33 3 2
34 3 2
35 3 2
36 3 2
37 3 2
38 3 2
39 3 2
40 3 2
41 3 2
42 3 2
43 3 2
44 3 2
45 3 2
46 3 2
47 3 2
48 3 2
49 3 2
0 4 2
1 4 2
2 4 2
3 4 2
4 4 2
5 4 2
6 4 2
7 4 2
8 4 2
9 4 2
10 4 2
11 4 2
12 4 2
13 4 2
14 4 2
15 4 2
16 4 2
17 4 2
18 4 2
19 4 2
20 4 2
21 4 2
22 4 2
23 4 2
24 4 2
25 4 2
26 4 2
27 4 2
28 4 2
29 4 2
30 4 2
31 4 2
32 4 2
33 4 2
34 4 2
35 4 2
36 4 2
37 4 2
38 4 2
39 4 2
40 4 2
41 4 2
42 4 2
43 4 2
44 4 2
45 4 2
46 4 2
47 4 2
48 4 2
49 4 2
0 5 2
1 5 2
2 5 2
3 5 2
4 5 2
5 5 2
6 5 2
7 5 2
8 5 2
9 5 2
10 5 2
11 5 2
12 5 2
13 5 2
14 5 2
15 5 2
16 5 2
17 5 2
18 5 2
19 5 2
20 5 2
21 5 2
22 5 2
23 5 2
24 5 2
25 5 2
26 5 2
27 5 2
28 5 2
29 5 2
30 5 2
31 5 2
32 5 2
33 5 2
34 5 2
35 5 2
36 5 2
37 5 2
38 5 2
39 5 2
40 5 2
41 5 2
42 5 2
43 5 2
44 5 2
45 5 2
46 5 2
47 5 2
48 5 2
49 5 2
0 6 2
1 6 2
2 6 2
3 6 2
4 6 2
5 6 2
6 6 2
7 6 2
8 6 2
9 6 2
10 6 2
11 6 2
12 6 2
13 6 2
14 6 2
15 6 2
16 6 2
17 6 2
18 6 2
19 6 2
20 6 2
21 6 2
22 6 2
23 6 2
24 6 2
25 6 2
26 6 2
27 6 2
28 6 2
29 6 2
30 6 2
31 6 2
32 6 2
33 6 2
34 6 2
35 6 2
36 6 2
37 6 2
38 6 2
39 6 2
40 6 2
41 6 2
42 6 2
43 6 2
44 6 2
45 6 2
46 6 2
47 6 2
48 6 2
49 6 2
0 7 2
1 7 2
2 7 2
3 7 2
4 7 2
5 7 2
6 7 2
7 7 2
8 7 2
9 7 2
10 7 2
11 7 2
12 7 2
13 7 2
14 7 2
15 7 2
16 7 2
17 7 2
18 7 2
19 7 2
20 7 2
21 7 2
22 7 2
23 7 2
24 7 2
25 7 2
26 7 2
27 7 2
28 7 2
29 7 2
30 7 2
31 7 2
32 7 2
33 7 2
34 7 2
35 7 2
36 7 2
37 7 2
38 7 2
39 7 2
40 7 2
41 7 2
42 7 2
43 7 2
44 7 2
45 7 2
46 7 2
47 7 2
48 7 2
49 7 2
0 8 2
1 8 2
2 8 2
3 8 2
4 8 2
5 8 2
6 8 2
7 8 2
8 8 2
9 8 2
10 8 2
11 8 2
12 8 2
13 8 2
14 8 2
15 8 2
16 8 2
17 8 2
18 8 2
19 8 2
20 8 2
21 8 2
22 8 2
23 8 2
24 8 2
25 8 2
26 8 2
27 8 2
28 8 2
29 8 2
30 8 2
31 8 2
32 8 2
33 8 2
34 8 2
35 8 2
36 8 2
37 8 2
38 8 2
39 8 2
40 8 2
41 8 2
42 8 2
43 8 2
44 8 2
45 8 2
46 8 2
47 8 2
48 8 2
49 8 2
0 9 2
1 9 2
2 9 2
3 9 2
4 9 2
[...]
POINT_DATA 15000
SCALARS sol168 float
LOOKUP_TABLE default
57.6122
57.6091
57.6061
57.603
57.6
57.5969
57.5939
57.5908
57.5878
57.5847
57.5817
57.5787
57.5756
57.5726
57.5695
57.5665
57.5634
57.5604
57.5573
57.5543
57.5513
57.5482
57.5452
57.5421
57.5391
57.5361
57.533
57.53
57.527
57.5239
57.5209
57.5178
57.5148
57.5118
57.5087
57.5057
57.5027
57.4996
57.4966
57.4936
57.4905
57.4875
57.4845
57.4814
57.4784
57.4754
57.4723
57.4693
57.4663
57.4633
57.4602
57.4572
57.4542
57.4511
57.4481
57.4451
57.4421
57.439
57.436
57.433
57.43
57.4269
57.4239
57.4209
57.4179
57.4148
57.4118
57.4088
57.4058
57.4027
57.3997
57.3967
57.3937
57.3907
57.3876
57.3846
57.3816
57.3786
57.3756
57.3726
57.3695
57.3665
57.3635
57.3605
57.3575
57.3545
57.3514
57.3484
57.3454
57.3424
57.3394
57.3364
57.3334
57.3304
57.3273
57.3243
57.3213
57.3183
57.3153
57.3123
57.3093
57.3063
57.3033
57.3003
57.2973
57.2942
57.2912
57.2882
57.2852
57.2822
57.2792
57.2762
57.2732
57.2702
57.2672
57.2642
57.2612
57.2582
57.2552
57.2522
57.2492
57.2462
57.2432
57.2402
57.2372
57.2342
57.2312
57.2282
57.2252
57.2222
57.2192
57.2162
57.2132
57.2102
57.2072
57.2042
57.2012
57.1982
57.1952
57.1923
57.1893
57.1863
57.1833
57.1803
57.1773
57.1743
57.1713
57.1683
57.1653
57.1623
57.1594
57.1564
57.1534
57.1504
57.1474
57.1444
57.1414
57.1384
57.1355
57.1325
57.1295
57.1265
57.1235
57.1205
57.1176
57.1146
57.1116
57.1086
57.1056
57.1026
57.0997
57.0967
57.0937
57.0907
57.0877
57.0848
57.0818
57.0788
57.0758
57.0729
57.0699
57.0669
57.0639
57.061
57.058
57.055
57.052
57.0491
57.0461
57.0431
57.0401
57.0372
57.0342
57.0312
57.0282
57.0253
57.0223
57.0193
57.0164
57.0134
57.0104
57.0075
57.0045
57.0015
56.9986
56.9956
56.9926
56.9897
56.9867
56.9837
56.9808
56.9778
56.9748
56.9719
56.9689
56.9659
56.963
56.96
56.9571
56.9541
56.9511
56.9482
56.9452
56.9423
56.9393
56.9363
56.9334
56.9304
56.9275
56.9245
56.9216
56.9186
56.9156
56.9127
56.9097
56.9068
56.9038
56.9009
56.8979
56.895
56.892
56.8891
56.8861
56.8831
56.8802
56.8772
56.8743
56.8713
56.8684
56.8654
56.8625
56.8595
56.8566
56.8537
56.8507
56.8478
56.8448
56.8419
56.8389
56.836
56.833
56.8301
56.8271
56.8242
56.8213
56.8183
56.8154
56.8124
56.8095
56.8065
56.8036
56.8007
56.7977
56.7948
56.7918
56.7889
56.786
56.783
56.7801
56.7772
56.7742
56.7713
56.7683
56.7654
56.7625
56.7595
56.7566
56.7537
56.7507
56.7478
56.7449
56.7419
56.739
56.7361
56.7331
56.7302
56.7273
56.7243
56.7214
56.7185
56.7156
56.7126
56.7097
56.7068
56.7038
56.7009
56.698
56.6951
56.6921
56.6892
56.6863
56.6834
56.6804
56.6775
56.6746
56.6717
56.6687
56.6658
56.6629
56.66
56.6571
56.6541
56.6512
56.6483
56.6454
56.6425
56.6395
56.6366
56.6337
56.6308
56.6279
56.625
56.622
56.6191
56.6162
56.6133
56.6104
56.6075
56.6045
56.6016
56.5987
56.5958
56.5929
56.59
56.5871
56.5842
56.5813
56.5783
56.5754
56.5725
56.5696
56.5667
56.5638
56.5609
56.558
56.5551
56.5522
56.5493
56.5464
56.5434
56.5405
56.5376
56.5347
56.5318
56.5289
56.526
56.5231
56.5202
56.5173
56.5144
56.5115
56.5086
56.5057
56.5028
56.4999
56.497
56.4941
56.4912
56.4883
56.4854
56.4825
56.4796
56.4767
56.4738
56.4709
56.468
56.4651
56.4622
56.4593
56.4565
56.4536
56.4507
56.4478
56.4449
56.442
56.4391
56.4362
56.4333
56.4304
56.4275
56.4246
56.4218
56.4189
56.416
56.4131
56.4102
56.4073
56.4044
56.4015
56.3987
56.3958
56.3929
56.39
56.3871
56.3842
56.3814
56.3785
56.3756
56.3727
56.3698
56.3669
56.3641
56.3612
56.3583
56.3554
56.3525
56.3497
56.3468
56.3439
56.341
56.3381
56.3353
56.3324
56.3295
56.3266
56.3238
56.3209
56.318
56.3151
56.3123
56.3094
56.3065
56.3036
56.3008
56.2979
56.295
56.2921
56.2893
56.2864
56.2835
56.2807
56.2778
56.2749
56.2721
56.2692
56.2663
56.2635
56.2606
56.2577
56.2549
56.252
56.2491
56.2463
56.2434
56.2405
56.2377
56.2348
56.2319
56.2291
56.2262
56.2233
56.2205
56.2176
56.2148
56.2119
56.209
56.2062
56.2033
56.2005
56.1976
56.1947
56.1919
56.189
56.1862
56.1833
56.1805
56.1776
56.1747
56.1719
56.169
56.1662
56.1633
56.1605
56.1576
56.1548
56.1519
56.1491
56.1462
56.1434
56.1405
56.1377
56.1348
56.132
56.1291
56.1263
56.1234
56.1206
56.1177
56.1149
56.112
56.1092
56.1063
56.1035
56.1006
56.0978
56.095
56.0921
56.0893
56.0864
56.0836
56.0807
56.0779
56.075
56.0722
56.0694
56.0665
56.0637
56.0608
56.058
56.0552
56.0523
56.0495
56.0467
56.0438
56.041
56.0381
56.0353
56.0325
56.0296
56.0268
56.024
56.0211
56.0183
56.0155
56.0126
56.0098
56.007
56.0041
56.0013
55.9985
55.9956
55.9928
55.99
55.9871
55.9843
55.9815
55.9787
55.9758
55.973
55.9702
55.9673
55.9645
55.9617
55.9589
55.956
55.9532
55.9504
55.9476
55.9447
55.9419
55.9391
55.9363
55.9334
55.9306
55.9278
55.925
55.9222
55.9193
55.9165
55.9137
55.9109
55.9081
55.9052
55.9024
55.8996
55.8968
55.894
55.8912
55.8883
55.8855
55.8827
55.8799
55.8771
55.8743
55.8714
55.8686
55.8658
55.863
55.8602
55.8574
55.8546
55.8518
55.849
55.8461
55.8433
55.8405
55.8377
55.8349
55.8321
55.8293
55.8265
55.8237
55.8209
55.8181
55.8153
55.8124
55.8096
55.8068
55.804
55.8012
55.7984
55.7956
55.7928
55.79
55.7872
55.7844
55.7816
55.7788
55.776
55.7732
55.7704
55.7676
55.7648
55.762
55.7592
55.7564
55.7536
55.7508
55.748
55.7452
55.7424
55.7396
55.7368
55.734
55.7312
55.7284
55.7257
55.7229
55.7201
55.7173
55.7145
55.7117
55.7089
55.7061
55.7033
55.7005
55.6977
55.6949
55.6922
55.6894
55.6866
55.6838
55.681
55.6782
55.6754
55.6726
55.6699
55.6671
55.6643
55.6615
55.6587
55.6559
55.6531
55.6504
55.6476
55.6448
55.642
55.6392
55.6365
55.6337
55.6309
55.6281
55.6253
55.6225
55.6198
55.617
55.6142
55.6114
55.6087
55.6059
55.6031
55.6003
55.5975
55.5948
55.592
55.5892
55.5864
55.5837
55.5809
55.5781
55.5754
55.5726
55.5698
55.567
55.5643
55.5615
55.5587
55.5559
55.5532
55.5504
55.5476
55.5449
55.5421
55.5393
55.5366
55.5338
55.531
55.5283
55.5255
55.5227
55.52
55.5172
55.5144
55.5117
55.5089
55.5061
55.5034
55.5006
55.4979
55.4951
55.4923
55.4896
55.4868
55.4841
55.4813
55.4785
55.4758
55.473
55.4703
55.4675
55.4647
55.462
55.4592
55.4565
55.4537
55.451
55.4482
55.4454
55.4427
55.4399
55.4372
55.4344
55.4317
55.4289
55.4262
55.4234
55.4207
55.4179
55.4152
55.4124
55.4097
55.4069
55.4042
55.4014
55.3987
55.3959
55.3932
55.3904
55.3877
55.3849
55.3822
55.3794
55.3767
55.3739
55.3712
55.3685
55.3657
55.363
55.3602
55.3575
55.3547
55.352
55.3493
55.3465
55.3438
55.341
55.3383
55.3356
55.3328
55.3301
55.3273
55.3246
55.3219
55.3191
55.3164
55.3136
55.3109
55.3082
55.3054
55.3027
55.3
55.2972
55.2945
55.2918
55.289
55.2863
55.2836
55.2808
55.2781
55.2754
55.2726
55.2699
55.2672
55.2644
55.2617
55.259
55.2563
55.2535
55.2508
55.2481
55.2453
55.2426
55.2399
55.2372
55.2344
55.2317
55.229
55.2263
55.2235
55.2208
55.2181
55.2154
55.2126
55.2099
55.2072
55.2045
55.2018
55.199
55.1963
55.1936
55.1909
55.1882
55.1854
55.1827
55.18
55.1773
55.1746
55.1719
55.1691
55.1664
55.1637
55.161
55.1583
55.1556
55.1528
55.1501
55.1474
55.1447
55.142
55.1393
55.1366
55.1339
55.1311
55.1284
55.1257
55.123
55.1203
55.1176
55.1149
55.1122
55.1095
55.1068
55.104
55.1013
55.0986
55.0959
55.0932
55.0905
55.0878
55.0851
55.0824
55.0797
55.077
55.0743
55.0716
55.0689
55.0662
55.0635
55.0608
55.0581
55.0554
55.0527
55.05
55.0473
55.0446
55.0419
55.0392
55.0365
55.0338
55.0311
55.0284
55.0257
55.023
55.0203
55.0176
55.0149
55.0122
55.0095
55.0068
55.0041
55.0014
54.9987
54.9961
54.9934
54.9907
54.988
54.9853
54.9826
54.9799
54.9772
54.9745
54.9718
54.9692
54.9665
54.9638
54.9611
54.9584
54.9557
54.953
54.9503
54.9477
54.945
54.9423
54.9396
54.9369
54.9342
54.9315
54.9289
54.9262
54.9235
54.9208
54.9181
54.9155
54.9128
54.9101
54.9074
54.9047
54.9021
54.8994
54.8967
54.894
54.8913
54.8887
54.886
54.8833
54.8806
54.878
54.8753
54.8726
54.8699
54.8673
54.8646
54.8619
54.8592
54.8566
54.8539
54.8512
54.8485
54.8459
54.8432
54.8405
54.8379
54.8352
54.8325
54.8299
54.8272
54.8245
54.8219
54.8192
54.8165
54.8139
54.8112
54.8085
54.8059
54.8032
54.8005
54.7979
54.7952
54.7925
54.7899
54.7872
54.7845
54.7819
54.7792
54.7766
54.7739
54.7712
54.7686
54.7659
54.7633
54.7606
54.7579
54.7553
54.7526
54.75
54.7473
54.7446
54.742
54.7393
54.7367
54.734
54.7314
54.7287
54.7261
54.7234
54.7207
54.7181
54.7154
54.7128
54.7101
54.7075
54.7048
54.7022
54.6995
54.6969
54.6942
54.6916
54.6889
54.6863
54.6836
54.681
54.6783
54.6757
54.673
54.6704
54.6678
54.6651
54.6625
54.6598
54.6572
54.6545
54.6519
54.6492
54.6466
54.644
54.6413
54.6387
54.636
54.6334
54.6307
54.6281
54.6255
54.6228
54.6202
54.6175
54.6149
54.6123
54.6096
54.607
54.6044
54.6017
54.5991
54.5964
54.5938
54.5912
54.5885
54.5859
54.5833
54.5806
54.578
54.5754
54.5727
54.5701
54.5675
54.5648
54.5622
54.5596
54.5569
54.5543
54.5517
54.5491
54.5464
54.5438
54.5412
54.5385
54.5359
54.5333
54.5307
54.528
54.5254
54.5228
54.5202
54.5175
54.5149
54.5123
54.5097
54.507
54.5044
54.5018
54.4992
54.4965
54.4939
54.4913
54.4887
54.4861
54.4834
54.4808
54.4782
54.4756
54.473
54.4703
54.4677
54.4651
54.4625
54.4599
54.4573
54.4546
54.452
54.4494
54.4468
54.4442
54.4416
54.439
54.4363
54.4337
54.4311
54.4285
54.4259
54.4233
54.4207
54.4181
54.4154
54.4128
54.4102
54.4076
54.405
54.4024
54.3998
54.3972
54.3946
54.392
54.3894
54.3868
54.3842
54.3815
54.3789
54.3763
54.3737
54.3711
54.3685
54.3659
54.3633
54.3607
54.3581
54.3555
54.3529
54.3503
54.3477
54.3451
54.3425
54.3399
54.3373
54.3347
54.3321
54.3295
54.3269
54.3243
54.3217
54.3191
54.3165
54.3139
54.3113
54.3087
54.3061
54.3036
54.301
54.2984
54.2958
54.2932
54.2906
54.288
54.2854
54.2828
54.2802
54.2776
54.275
54.2724
54.2699
54.2673
54.2647
54.2621
54.2595
54.2569
54.2543
54.2517
54.2492
54.2466
54.244
54.2414
54.2388
54.2362
54.2336
54.2311
54.2285
54.2259
54.2233
54.2207
54.2181
54.2156
54.213
54.2104
54.2078
54.2052
54.2027
54.2001
54.1975
54.1949
54.1923
54.1898
54.1872
54.1846
54.182
54.1794
54.1769
54.1743
54.1717
54.1691
54.1666
54.164
54.1614
54.1588
54.1563
54.1537
54.1511
54.1486
54.146
54.1434
54.1408
54.1383
54.1357
54.1331
54.1306
54.128
54.1254
54.1229
54.1203
54.1177
54.1152
54.1126
54.11
54.1074
54.1049
54.1023
54.0998
54.0972
54.0946
54.0921
54.0895
54.0869
54.0844
54.0818
54.0792
54.0767
54.0741
54.0716
54.069
54.0664
54.0639
54.0613
54.0588
54.0562
54.0536
54.0511
54.0485
54.046
54.0434
54.0409
54.0383
54.0357
54.0332
54.0306
54.0281
54.0255
54.023
54.0204
54.0179
54.0153
54.0128
54.0102
54.0076
54.0051
54.0025
54
53.9974
53.9949
53.9923
53.9898
53.9872
53.9847
53.9821
53.9796
53.977
53.9745
53.972
53.9694
53.9669
53.9643
53.9618
53.9592
53.9567
53.9541
53.9516
53.949
53.9465
53.944
53.9414
53.9389
53.9363
53.9338
53.9313
53.9287
53.9262
53.9236
53.9211
53.9186
53.916
53.9135
53.9109
53.9084
53.9059
53.9033
53.9008
53.8983
53.8957
53.8932
53.8906
53.8881
53.8856
53.883
53.8805
53.878
53.8754
53.8729
53.8704
53.8678
53.8653
53.8628
53.8603
53.8577
53.8552
53.8527
53.8501
53.8476
53.8451
53.8425
53.84
53.8375
53.835
53.8324
53.8299
53.8274
53.8249
53.8223
53.8198
53.8173
53.8148
53.8122
53.8097
53.8072
53.8047
53.8021
53.7996
53.7971
53.7946
53.7921
53.7895
53.787
53.7845
53.782
53.7795
53.7769
53.7744
53.7719
53.7694
53.7669
53.7644
53.7618
53.7593
53.7568
53.7543
53.7518
53.7493
53.7467
53.7442
53.7417
53.7392
53.7367
53.7342
53.7317
53.7292
53.7266
53.7241
53.7216
53.7191
53.7166
53.7141
53.7116
53.7091
53.7066
53.7041
53.7015
53.699
53.6965
53.694
53.6915
53.689
53.6865
53.684
53.6815
53.679
53.6765
53.674
53.6715
53.669
53.6665
53.664
53.6615
53.659
53.6565
53.654
53.6515
53.649
53.6465
53.644
53.6415
53.639
53.6365
53.634
53.6315
53.629
53.6265
53.624
53.6215
53.619
53.6165
53.614
53.6115
53.609
53.6065
53.604
53.6015
53.599
53.5965
53.5941
53.5916
53.5891
53.5866
53.5841
53.5816
53.5791
53.5766
53.5741
53.5716
53.5691
53.5667
53.5642
53.5617
53.5592
53.5567
53.5542
53.5517
53.5493
53.5468
53.5443
53.5418
53.5393
53.5368
53.5343
53.5319
53.5294
53.5269
53.5244
53.5219
53.5195
53.517
53.5145
53.512
53.5095
53.5071
53.5046
53.5021
53.4996
53.4971
53.4947
53.4922
53.4897
53.4872
53.4848
53.4823
53.4798
53.4773
53.4748
53.4724
53.4699
53.4674
53.465
53.4625
53.46
53.4575
53.4551
53.4526
53.4501
53.4477
53.4452
53.4427
53.4402
53.4378
53.4353
53.4328
53.4304
53.4279
53.4254
53.423
53.4205
53.418
53.4156
53.4131
53.4106
53.4082
53.4057
53.4032
53.4008
53.3983
53.3958
53.3934
53.3909
53.3885
53.386
53.3835
53.3811
53.3786
53.3762
53.3737
53.3712
53.3688
53.3663
53.3639
53.3614
53.3589
53.3565
53.354
53.3516
53.3491
53.3467
53.3442
53.3417
53.3393
53.3368
53.3344
53.3319
53.3295
53.327
53.3246
53.3221
53.3197
53.3172
53.3148
53.3123
53.3099
53.3074
53.305
53.3025
53.3001
53.2976
53.2952
53.2927
53.2903
53.2878
53.2854
53.2829
53.2805
53.278
53.2756
53.2731
53.2707
53.2683
53.2658
53.2634
53.2609
53.2585
53.256
53.2536
53.2511
53.2487
53.2463
53.2438
53.2414
53.2389
53.2365
53.2341
53.2316
53.2292
53.2267
53.2243
53.2219
53.2194
53.217
53.2146
53.2121
53.2097
53.2073
53.2048
53.2024
53.1999
53.1975
53.1951
53.1926
53.1902
53.1878
53.1853
53.1829
53.1805
53.1781
53.1756
53.1732
53.1708
53.1683
53.1659
53.1635
53.161
53.1586
53.1562
53.1538
53.1513
53.1489
53.1465
53.1441
53.1416
53.1392
53.1368
53.1344
53.1319
53.1295
53.1271
53.1247
53.1222
53.1198
53.1174
53.115
53.1125
53.1101
53.1077
53.1053
53.1029
53.1004
53.098
53.0956
53.0932
53.0908
53.0883
53.0859
53.0835
53.0811
53.0787
53.0763
53.0738
53.0714
53.069
53.0666
53.0642
53.0618
53.0594
53.0569
53.0545
53.0521
53.0497
53.0473
53.0449
53.0425
53.0401
53.0377
53.0352
53.0328
53.0304
53.028
53.0256
53.0232
53.0208
53.0184
53.016
53.0136
53.0112
53.0088
53.0063
53.0039
53.0015
52.9991
52.9967
52.9943
52.9919
52.9895
52.9871
52.9847
52.9823
52.9799
52.9775
52.9751
52.9727
52.9703
52.9679
52.9655
52.9631
52.9607
52.9583
52.9559
52.9535
52.9511
52.9487
52.9463
52.9439
52.9415
52.9391
52.9367
52.9343
52.9319
52.9295
52.9272
52.9248
52.9224
52.92
52.9176
52.9152
52.9128
52.9104
52.908
52.9056
52.9032
52.9008
52.8985
52.8961
52.8937
52.8913
52.8889
52.8865
52.8841
52.8817
52.8793
52.877
52.8746
52.8722
52.8698
52.8674
52.865
52.8626
52.8603
52.8579
52.8555
52.8531
52.8507
52.8483
52.846
52.8436
52.8412
52.8388
52.8364
52.8341
52.8317
52.8293
52.8269
52.8245
52.8222
52.8198
52.8174
52.815
52.8127
52.8103
52.8079
52.8055
52.8031
52.8008
52.7984
52.796
52.7936
52.7913
52.7889
52.7865
52.7842
52.7818
52.7794
52.777
52.7747
52.7723
52.7699
52.7676
52.7652
52.7628
52.7604
52.7581
52.7557
52.7533
52.751
52.7486
52.7462
52.7439
52.7415
52.7391
52.7368
52.7344
52.732
52.7297
52.7273
52.725
52.7226
52.7202
52.7179
52.7155
52.7131
52.7108
52.7084
52.7061
52.7037
52.7013
52.699
52.6966
52.6943
52.6919
52.6895
52.6872
52.6848
52.6825
52.6801
52.6777
52.6754
52.673
52.6707
52.6683
52.666
52.6636
52.6613
52.6589
52.6565
52.6542
52.6518
52.6495
52.6471
52.6448
52.6424
52.6401
52.6377
52.6354
52.633
52.6307
52.6283
52.626
52.6236
52.6213
52.6189
52.6166
52.6142
52.6119
52.6095
52.6072
52.6049
52.6025
52.6002
52.5978
52.5955
52.5931
52.5908
52.5884
52.5861
52.5838
52.5814
52.5791
52.5767
52.5744
52.572
52.5697
52.5674
52.565
52.5627
52.5603
52.558
52.5557
52.5533
52.551
52.5487
52.5463
52.544
52.5416
52.5393
52.537
52.5346
52.5323
52.53
52.5276
52.5253
52.523
52.5206
52.5183
52.516
52.5136
52.5113
52.509
52.5066
52.5043
52.502
52.4997
52.4973
52.495
52.4927
52.4903
52.488
52.4857
52.4833
52.481
52.4787
52.4764
52.474
52.4717
52.4694
52.4671
52.4647
52.4624
52.4601
52.4578
52.4554
52.4531
52.4508
52.4485
52.4462
52.4438
52.4415
52.4392
52.4369
52.4345
52.4322
52.4299
52.4276
52.4253
52.423
52.4206
52.4183
52.416
52.4137
52.4114
52.409
52.4067
52.4044
52.4021
52.3998
52.3975
52.3952
52.3928
52.3905
52.3882
52.3859
52.3836
52.3813
52.379
52.3767
52.3743
52.372
52.3697
52.3674
52.3651
52.3628
52.3605
52.3582
52.3559
52.3536
52.3513
52.3489
52.3466
52.3443
52.342
52.3397
52.3374
52.3351
52.3328
52.3305
52.3282
52.3259
52.3236
52.3213
52.319
52.3167
52.3144
52.3121
52.3098
52.3075
52.3052
52.3029
52.3006
52.2983
52.296
52.2937
52.2914
52.2891
52.2868
52.2845
52.2822
52.2799
52.2776
52.2753
52.273
52.2707
52.2684
52.2661
52.2638
52.2615
52.2592
52.2569
52.2546
52.2524
52.2501
52.2478
52.2455
52.2432
52.2409
52.2386
52.2363
52.234
52.2317
52.2294
52.2272
52.2249
52.2226
52.2203
52.218
52.2157
52.2134
52.2111
52.2089
52.2066
52.2043
52.202
52.1997
52.1974
52.1951
52.1929
52.1906
52.1883
52.186
52.1837
52.1815
52.1792
52.1769
52.1746
52.1723
52.17
52.1678
52.1655
52.1632
52.1609
52.1587
52.1564
52.1541
52.1518
52.1495
52.1473
52.145
52.1427
52.1404
52.1382
52.1359
52.1336
52.1313
52.1291
52.1268
52.1245
52.1222
52.12
52.1177
52.1154
52.1132
52.1109
52.1086
52.1063
52.1041
52.1018
52.0995
52.0973
52.095
52.0927
52.0905
52.0882
52.0859
52.0837
52.0814
52.0791
52.0769
52.0746
52.0723
52.0701
52.0678
52.0655
52.0633
52.061
52.0587
52.0565
52.0542
52.052
52.0497
52.0474
52.0452
52.0429
52.0407
52.0384
52.0361
52.0339
52.0316
52.0294
52.0271
52.0248
52.0226
52.0203
52.0181
52.0158
52.0136
52.0113
52.009
52.0068
52.0045
52.0023
52
51.9978
51.9955
51.9933
51.991
51.9888
51.9865
51.9843
51.982
51.9798
51.9775
51.9753
51.973
51.9708
51.9685
51.9663
51.964
51.9618
51.9595
51.9573
51.955
51.9528
51.9505
51.9483
51.946
51.9438
51.9415
51.9393
51.937
51.9348
51.9326
51.9303
51.9281
51.9258
51.9236
51.9213
51.9191
51.9169
51.9146
51.9124
51.9101
51.9079
51.9057
51.9034
51.9012
51.8989
51.8967
51.8945
51.8922
51.89
51.8878
51.8855
51.8833
51.881
51.8788
51.8766
51.8743
51.8721
51.8699
51.8676
51.8654
51.8632
51.8609
51.8587
51.8565
51.8542
51.852
51.8498
51.8476
51.8453
51.8431
51.8409
51.8386
51.8364
51.8342
51.8319
51.8297
51.8275
51.8253
51.823
51.8208
51.8186
51.8164
51.8141
51.8119
51.8097
51.8075
51.8052
51.803
51.8008
51.7986
51.7963
51.7941
51.7919
51.7897
51.7875
51.7852
51.783
51.7808
51.7786
51.7764
51.7741
51.7719
51.7697
51.7675
51.7653
51.763
51.7608
51.7586
51.7564
51.7542
51.752
51.7497
51.7475
51.7453
51.7431
51.7409
51.7387
51.7365
51.7342
51.732
51.7298
51.7276
51.7254
51.7232
51.721
51.7188
51.7166
51.7143
51.7121
51.7099
51.7077
51.7055
51.7033
51.7011
51.6989
51.6967
51.6945
51.6923
51.6901
51.6879
51.6856
51.6834
51.6812
51.679
51.6768
51.6746
51.6724
51.6702
51.668
51.6658
51.6636
51.6614
51.6592
51.657
51.6548
51.6526
51.6504
51.6482
51.646
51.6438
51.6416
51.6394
51.6372
51.635
51.6328
51.6306
51.6284
51.6262
51.624
51.6218
51.6196
51.6174
51.6152
51.6131
51.6109
51.6087
51.6065
51.6043
51.6021
51.5999
51.5977
51.5955
51.5933
51.5911
51.5889
51.5867
51.5846
51.5824
51.5802
51.578
51.5758
51.5736
51.5714
51.5692
51.5671
51.5649
51.5627
51.5605
51.5583
51.5561
51.5539
51.5518
51.5496
51.5474
51.5452
51.543
51.5408
51.5387
51.5365
51.5343
51.5321
51.5299
51.5277
51.5256
51.5234
51.5212
51.519
51.5168
51.5147
51.5125
51.5103
51.5081
51.506
51.5038
51.5016
51.4994
51.4972
51.4951
51.4929
51.4907
51.4885
51.4864
51.4842
51.482
51.4798
51.4777
51.4755
51.4733
51.4712
51.469
51.4668
51.4646
51.4625
51.4603
51.4581
51.456
51.4538
51.4516
51.4495
51.4473
51.4451
51.443
51.4408
51.4386
51.4365
51.4343
51.4321
51.43
51.4278
51.4256
51.4235
51.4213
51.4191
51.417
51.4148
51.4126
51.4105
51.4083
51.4062
51.404
51.4018
51.3997
51.3975
51.3953
51.3932
51.391
51.3889
51.3867
51.3846
51.3824
51.3802
51.3781
51.3759
51.3738
51.3716
51.3695
51.3673
51.3651
51.363
51.3608
51.3587
51.3565
51.3544
51.3522
51.3501
51.3479
51.3458
51.3436
51.3415
51.3393
51.3372
51.335
51.3329
51.3307
51.3286
51.3264
51.3243
51.3221
51.32
51.3178
51.3157
51.3135
51.3114
51.3092
51.3071
51.3049
51.3028
51.3006
51.2985
51.2963
51.2942
51.2921
51.2899
51.2878
51.2856
51.2835
51.2813
51.2792
51.2771
51.2749
51.2728
51.2706
51.2685
51.2664
51.2642
51.2621
51.2599
51.2578
51.2557
51.2535
51.2514
51.2493
51.2471
51.245
51.2428
51.2407
51.2386
51.2364
51.2343
51.2322
51.23
51.2279
51.2258
51.2236
51.2215
51.2194
51.2172
51.2151
51.213
51.2108
51.2087
51.2066
51.2044
51.2023
51.2002
51.1981
51.1959
51.1938
51.1917
51.1895
51.1874
51.1853
51.1832
51.181
51.1789
51.1768
51.1747
51.1725
51.1704
51.1683
51.1662
51.164
51.1619
51.1598
51.1577
51.1556
51.1534
51.1513
51.1492
51.1471
51.1449
51.1428
51.1407
51.1386
51.1365
51.1343
51.1322
51.1301
51.128
51.1259
51.1238
51.1216
51.1195
51.1174