# vtk DataFile Version 2.0
vtk output
ASCII
DATASET STRUCTURED_GRID
DIMENSIONS 50 10 30
POINTS 15000 float
0 0 0
1 0 0
2 0 0
3 0 0
4 0 0
5 0 0
6 0 0
7 0 0
8 0 0
9 0 0
10 0 0
11 0 0
12 0 0
13 0 0
14 0 0
15 0 0
16 0 0
17 0 0
18 0 0
19 0 0
20 0 0
21 0 0
22 0 0
23 0 0
24 0 0
25 0 0
26 0 0
27 0 0
28 0 0
29 0 0
30 0 0
31 0 0
32 0 0
33 0 0
34 0 0
35 0 0
36 0 0
37 0 0
38 0 0
39 0 0
40 0 0
41 0 0
42 0 0
43 0 0
44 0 0
45 0 0
46 0 0
47 0 0
48 0 0
49 0 0
0 1 0
1 1 0
2 1 0
3 1 0
4 1 0
5 1 0
6 1 0
7 1 0
8 1 0
9 1 0
10 1 0
11 1 0
12 1 0
13 1 0
14 1 0
15 1 0
16 1 0
17 1 0
18 1 0
19 1 0
20 1 0
21 1 0
22 1 0
23 1 0
24 1 0
25 1 0
26 1 0
27 1 0
28 1 0
29 1 0
30 1 0
31 1 0
32 1 0
33 1 0
34 1 0
35 1 0
36 1 0
37 1 0
38 1 0
39 1 0
40 1 0
41 1 0
42 1 0
43 1 0
44 1 0
45 1 0
46 1 0
47 1 0
48 1 0
49 1 0
0 2 0
1 2 0
2 2 0
3 2 0
4 2 0
5 2 0
6 2 0
7 2 0
8 2 0
9 2 0
10 2 0
11 2 0
12 2 0
13 2 0
14 2 0
15 2 0
16 2 0
17 2 0
18 2 0
19 2 0
20 2 0
21 2 0
22 2 0
23 2 0
24 2 0
25 2 0
26 2 0
27 2 0
28 2 0
29 2 0
30 2 0
31 2 0
32 2 0
33 2 0
34 2 0
35 2 0
36 2 0
37 2 0
38 2 0
39 2 0
40 2 0
41 2 0
42 2 0
43 2 0
44 2 0
45 2 0
46 2 0
47 2 0
48 2 0
49 2 0
0 3 0
1 3 0
2 3 0
3 3 0
4 3 0
5 3 0
6 3 0
7 3 0
8 3 0
9 3 0
10 3 0
11 3 0
12 3 0
13 3 0
14 3 0
15 3 0
16 3 0
17 3 0
18 3 0
19 3 0
20 3 0
21 3 0
22 3 0
23 3 0
24 3 0
25 3 0
26 3 0
27 3 0
28 3 0
29 3 0
30 3 0
31 3 0
32 3 0
33 3 0
34 3 0
35 3 0
36 3 0
37 3 0
38 3 0
39 3 0
40 3 0
41 3 0
42 3 0
43 3 0
44 3 0
45 3 0
46 3 0
47 3 0
48 3 0
49 3 0
0 4 0
1 4 0
2 4 0
3 4 0
4 4 0
5 4 0
6 4 0
7 4 0
8 4 0
9 4 0
10 4 0
11 4 0
12 4 0
13 4 0
14 4 0
15 4 0
16 4 0
17 4 0
18 4 0
19 4 0
20 4 0
21 4 0
22 4 0
23 4 0
24 4 0
25 4 0
26 4 0
27 4 0
28 4 0
29 4 0
30 4 0
31 4 0
32 4 0
33 4 0
34 4 0
35 4 0
36 4 0
37 4 0
38 4 0
39 4 0
40 4 0
41 4 0
42 4 0
43 4 0
44 4 0
45 4 0
46 4 0
47 4 0
48 4 0
49 4 0
0 5 0
1 5 0
2 5 0
3 5 0
4 5 0
5 5 0
6 5 0
7 5 0
8 5 0
9 5 0
10 5 0
11 5 0
12 5 0
13 5 0
14 5 0
15 5 0
16 5 0
17 5 0
18 5 0
19 5 0
20 5 0
21 5 0
22 5 0
23 5 0
24 5 0
25 5 0
26 5 0
27 5 0
28 5 0
29 5 0
30 5 0
31 5 0
32 5 0
33 5 0
34 5 0
35 5 0
36 5 0
37 5 0
38 5 0
39 5 0
40 5 0
41 5 0
42 5 0
43 5 0
44 5 0
45 5 0
46 5 0
47 5 0
48 5 0
49 5 0
0 6 0
1 6 0
2 6 0
3 6 0
4 6 0
5 6 0
6 6 0
7 6 0
8 6 0
9 6 0
10 6 0
11 6 0
12 6 0
13 6 0
14 6 0
15 6 0
16 6 0
17 6 0
18 6 0
19 6 0
20 6 0
21 6 0
22 6 0
23 6 0
24 6 0
25 6 0
26 6 0
27 6 0
28 6 0
29 6 0
30 6 0
31 6 0
32 6 0
33 6 0
34 6 0
35 6 0
36 6 0
37 6 0
38 6 0
39 6 0
40 6 0
41 6 0
42 6 0
43 6 0
44 6 0
45 6 0
46 6 0
47 6 0
48 6 0
49 6 0
0 7 0
1 7 0
2 7 0
3 7 0
4 7 0
5 7 0
6 7 0
7 7 0
8 7 0
9 7 0
10 7 0
11 7 0
12 7 0
13 7 0
14 7 0
15 7 0
16 7 0
17 7 0
18 7 0
19 7 0
20 7 0
21 7 0
22 7 0
23 7 0
24 7 0
25 7 0
26 7 0
27 7 0
28 7 0
29 7 0
30 7 0
31 7 0
32 7 0
33 7 0
34 7 0
35 7 0
36 7 0
37 7 0
38 7 0
39 7 0
40 7 0
41 7 0
42 7 0
43 7 0
44 7 0
45 7 0
46 7 0
47 7 0
48 7 0
49 7 0
0 8 0
1 8 0
2 8 0
3 8 0
4 8 0
5 8 0
6 8 0
7 8 0
8 8 0
9 8 0
10 8 0
11 8 0
12 8 0
13 8 0
14 8 0
15 8 0
16 8 0
17 8 0
18 8 0
19 8 0
20 8 0
21 8 0
22 8 0
23 8 0
24 8 0
25 8 0
26 8 0
27 8 0
28 8 0
29 8 0
30 8 0
31 8 0
32 8 0
33 8 0
34 8 0
35 8 0
36 8 0
37 8 0
38 8 0
39 8 0
40 8 0
41 8 0
42 8 0
43 8 0
44 8 0
45 8 0
46 8 0
47 8 0
48 8 0
49 8 0
0 9 0
1 9 0
2 9 0
3 9 0
4 9 0
5 9 0
6 9 0
7 9 0
8 9 0
9 9 0
10 9 0
11 9 0
12 9 0
13 9 0
14 9 0
15 9 0
16 9 0
17 9 0
18 9 0
19 9 0
20 9 0
21 9 0
22 9 0
23 9 0
24 9 0
25 9 0
26 9 0
27 9 0
28 9 0
29 9 0
30 9 0
31 9 0
32 9 0
33 9 0
34 9 0
35 9 0
36 9 0
37 9 0
38 9 0
39 9 0
40 9 0
41 9 0
42 9 0
43 9 0
44 9 0
45 9 0
46 9 0
47 9 0
48 9 0
49 9 0
0 0 1
1 0 1
2 0 1
3 0 1
4 0 1
5 0 1
6 0 1
7 0 1
8 0 1
9 0 1
10 0 1
11 0 1
12 0 1
13 0 1
14 0 1
15 0 1
16 0 1
17 0 1
18 0 1
19 0 1
20 0 1
21 0 1
22 0 1
23 0 1
24 0 1
25 0 1
26 0 1
27 0 1
28 0 1
29 0 1
30 0 1
31 0 1
32 0 1
33 0 1
34 0 1
35 0 1
36 0 1
37 0 1
38 0 1
39 0 1
40 0 1
41 0 1
42 0 1
43 0 1
44 0 1
45 0 1
46 0 1
47 0 1
48 0 1
49 0 1
0 1 1
1 1 1
2 1 1
3 1 1
4 1 1
5 1 1
6 1 1
7 1 1
8 1 1
9 1 1
10 1 1
11 1 1
12 1 1
13 1 1
14 1 1
15 1 1
16 1 1
17 1 1
18 1 1
19 1 1
20 1 1
21 1 1
22 1 1
23 1 1
24 1 1
25 1 1
26 1 1
27 1 1
28 1 1
29 1 1
30 1 1
31 1 1
32 1 1
33 1 1
34 1 1
35 1 1
36 1 1
37 1 1
38 1 1
39 1 1
40 1 1
41 1 1
42 1 1
43 1 1
44 1 1
45 1 1
46 1 1
47 1 1
48 1 1
49 1 1
0 2 1
1 2 1
2 2 1
3 2 1
4 2 1
5 2 1
6 2 1
7 2 1
8 2 1
9 2 1
10 2 1
11 2 1
12 2 1
13 2 1
14 2 1
15 2 1
16 2 1
17 2 1
18 2 1
19 2 1
20 2 1
21 2 1
22 2 1
23 2 1
24 2 1
25 2 1
26 2 1
27 2 1
28 2 1
29 2 1
30 2 1
31 2 1
32 2 1
33 2 1
34 2 1
35 2 1
36 2 1
37 2 1
38 2 1
39 2 1
40 2 1
41 2 1
42 2 1
43 2 1
44 2 1
45 2 1
46 2 1
47 2 1
48 2 1
49 2 1
0 3 1
1 3 1
2 3 1
3 3 1
4 3 1
5 3 1
6 3 1
7 3 1
8 3 1
9 3 1
10 3 1
11 3 1
12 3 1
13 3 1
14 3 1
15 3 1
16 3 1
17 3 1
18 3 1
19 3 1
20 3 1
21 3 1
22 3 1
23 3 1
24 3 1
25 3 1
26 3 1
27 3 1
28 3 1
29 3 1
30 3 1
31 3 1
32 3 1
33 3 1
34 3 1
35 3 1
36 3 1
37 3 1
38 3 1
39 3 1
40 3 1
41 3 1
42 3 1
43 3 1
44 3 1
45 3 1
46 3 1
47 3 1
48 3 1
49 3 1
0 4 1
1 4 1
2 4 1
3 4 1
4 4 1
5 4 1
6 4 1
7 4 1
8 4 1
9 4 1
10 4 1
11 4 1
12 4 1
13 4 1
14 4 1
15 4 1
16 4 1
17 4 1
18 4 1
19 4 1
20 4 1
21 4 1
22 4 1
23 4 1
24 4 1
25 4 1
26 4 1
27 4 1
28 4 1
29 4 1
30 4 1
31 4 1
32 4 1
33 4 1
34 4 1
35 4 1
36 4 1
37 4 1
38 4 1
39 4 1
40 4 1
41 4 1
42 4 1
43 4 1
44 4 1
45 4 1
46 4 1
47 4 1
48 4 1
49 4 1
0 5 1
1 5 1
2 5 1
3 5 1
4 5 1
5 5 1
6 5 1
7 5 1
8 5 1
9 5 1
10 5 1
11 5 1
12 5 1
13 5 1
14 5 1
15 5 1
16 5 1
17 5 1
18 5 1
19 5 1
20 5 1
21 5 1
22 5 1
23 5 1
24 5 1
25 5 1
26 5 1
27 5 1
28 5 1
29 5 1
30 5 1
31 5 1
32 5 1
33 5 1
34 5 1
35 5 1
36 5 1
37 5 1
38 5 1
39 5 1
40 5 1
41 5 1
42 5 1
43 5 1
44 5 1
45 5 1
46 5 1
47 5 1
48 5 1
49 5 1
0 6 1
1 6 1
2 6 1
3 6 1
4 6 1
5 6 1
6 6 1
7 6 1
8 6 1
9 6 1
10 6 1
11 6 1
12 6 1
13 6 1
14 6 1
15 6 1
16 6 1
17 6 1
18 6 1
19 6 1
20 6 1
21 6 1
22 6 1
23 6 1
24 6 1
25 6 1
26 6 1
27 6 1
28 6 1
29 6 1
30 6 1
31 6 1
32 6 1
33 6 1
34 6 1
35 6 1
36 6 1
37 6 1
38 6 1
39 6 1
40 6 1
41 6 1
42 6 1
43 6 1
44 6 1
45 6 1
46 6 1
47 6 1
48 6 1
49 6 1
0 7 1
1 7 1
2 7 1
3 7 1
4 7 1
5 7 1
6 7 1
7 7 1
8 7 1
9 7 1
10 7 1
11 7 1
12 7 1
13 7 1
14 7 1
15 7 1
16 7 1
17 7 1
18 7 1
19 7 1
20 7 1
21 7 1
22 7 1
23 7 1
24 7 1
25 7 1
26 7 1
27 7 1
28 7 1
29 7 1
30 7 1
31 7 1
32 7 1
33 7 1
34 7 1
35 7 1
36 7 1
37 7 1
38 7 1
39 7 1
40 7 1
41 7 1
42 7 1
43 7 1
44 7 1
45 7 1
46 7 1
47 7 1
48 7 1
49 7 1
0 8 1
1 8 1
2 8 1
3 8 1
4 8 1
5 8 1
6 8 1
7 8 1
8 8 1
9 8 1
10 8 1
11 8 1
12 8 1
13 8 1
14 8 1
15 8 1
16 8 1
17 8 1
18 8 1
19 8 1
20 8 1
21 8 1
22 8 1
23 8 1
24 8 1
25 8 1
26 8 1
27 8 1
28 8 1
29 8 1
30 8 1
31 8 1
32 8 1
33 8 1
34 8 1
35 8 1
36 8 1
37 8 1
38 8 1
39 8 1
40 8 1
41 8 1
42 8 1
43 8 1
44 8 1
45 8 1
46 8 1
47 8 1
48 8 1
49 8 1
0 9 1
1 9 1
2 9 1
3 9 1
4 9 1
5 9 1
6 9 1
7 9 1
8 9 1
9 9 1
10 9 1
11 9 1
12 9 1
13 9 1
14 9 1
15 9 1
16 9 1
17 9 1
18 9 1
19 9 1
20 9 1
21 9 1
22 9 1
23 9 1
24 9 1
25 9 1
26 9 1
27 9 1
28 9 1
29 9 1
30 9 1
31 9 1
32 9 1
33 9 1
34 9 1
35 9 1
36 9 1
37 9 1
38 9 1
39 9 1
40 9 1
41 9 1
42 9 1
43 9 1
44 9 1
45 9 1
46 9 1
47 9 1
48 9 1
49 9 1
0 0 2
1 0 2
2 0 2
3 0 2
4 0 2
5 0 2
6 0 2
7 0 2
8 0 2
9 0 2
10 0 2
11 0 2
12 0 2
13 0 2
14 0 2
15 0 2
16 0 2
17 0 2
18 0 2
19 0 2
20 0 2
21 0 2
22 0 2
23 0 2
24 0 2
25 0 2
26 0 2
27 0 2
28 0 2
29 0 2
30 0 2
31 0 2
32 0 2
33 0 2
34 0 2
35 0 2
36 0 2
37 0 2
38 0 2
39 0 2
40 0 2
41 0 2
42 0 2
43 0 2
44 0 2
45 0 2
46 0 2
47 0 2
48 0 2
49 0 2
0 1 2
1 1 2
2 1 2
3 1 2
4 1 2
5 1 2
6 1 2
7 1 2
8 1 2
9 1 2
10 1 2
11 1 2
12 1 2
13 1 2
14 1 2
15 1 2
16 1 2
17 1 2
18 1 2
19 1 2
20 1 2
21 1 2
22 1 2
23 1 2
24 1 2
25 1 2
26 1 2
27 1 2
28 1 2
29 1 2
30 1 2
31 1 2
32 1 2
33 1 2
34 1 2
35 1 2
36 1 2
37 1 2
38 1 2
39 1 2
40 1 2
41 1 2
42 1 2
43 1 2
44 1 2
45 1 2
46 1 2
47 1 2
48 1 2
49 1 2
0 2 2
1 2 2
2 2 2
3 2 2
4 2 2
5 2 2
6 2 2
7 2 2
8 2 2
9 2 2
10 2 2
11 2 2
12 2 2
13 2 2
14 2 2
15 2 2
16 2 2
17 2 2
18 2 2
19 2 2
20 2 2
21 2 2
22 2 2
23 2 2
24 2 2
25 2 2
26 2 2
27 2 2
28 2 2
29 2 2
30 2 2
31 2 2
32 2 2
33 2 2
34 2 2
35 2 2
36 2 2
37 2 2
38 2 2
39 2 2
40 2 2
41 2 2
42 2 2
43 2 2
44 2 2
45 2 2
46 2 2
47 2 2
48 2 2
49 2 2
0 3 2
1 3 2
2 3 2
3 3 2
4 3 2
5 3 2
6 3 2
7 3 2
8 3 2
9 3 2
10 3 2
11 3 2
12 3 2
13 3 2
14 3 2
15 3 2
16 3 2
17 3 2
18 3 2
19 3 2
20 3 2
21 3 2
22 3 2
23 3 2
24 3 2
25 3 2
26 3 2
27 3 2
28 3 2
29 3 2
30 3 2
31 3 2
32 3 2
33 3 2
34 3 2
35 3 2
36 3 2
37 3 2
38 3 2
39 3 2
40 3 2
41 3 2
42 3 2
43 3 2
44 3 2
45 3 2
46 3 2
47 3 2
48 3 2
49 3 2
0 4 2
1 4 2
2 4 2
3 4 2
4 4 2
5 4 2
6 4 2
7 4 2
8 4 2
9 4 2
10 4 2
11 4 2
12 4 2
13 4 2
14 4 2
15 4 2
16 4 2
17 4 2
18 4 2
19 4 2
20 4 2
21 4 2
22 4 2
23 4 2
24 4 2
25 4 2
26 4 2
27 4 2
28 4 2
29 4 2
30 4 2
31 4 2
32 4 2
33 4 2
34 4 2
35 4 2
36 4 2
37 4 2
38 4 2
39 4 2
40 4 2
41 4 2
42 4 2
43 4 2
44 4 2
45 4 2
46 4 2
47 4 2
48 4 2
49 4 2
0 5 2
1 5 2
2 5 2
3 5 2
4 5 2
5 5 2
6 5 2
7 5 2
8 5 2
9 5 2
10 5 2
11 5 2
12 5 2
13 5 2
14 5 2
15 5 2
16 5 2
17 5 2
18 5 2
19 5 2
20 5 2
21 5 2
22 5 2
23 5 2
24 5 2
25 5 2
26 5 2
27 5 2
28 5 2
29 5 2
30 5 2
31 5 2
32 5 2
33 5 2
34 5 2
35 5 2
36 5 2
37 5 2
38 5 2
39 5 2
40 5 2
41 5 2
42 5 2
43 5 2
44 5 2
45 5 2
46 5 2
47 5 2
48 5 2
49 5 2
0 6 2
1 6 2
2 6 2
3 6 2
4 6 2
5 6 2
6 6 2
7 6 2
8 6 2
9 6 2
10 6 2
11 6 2
12 6 2
13 6 2
14 6 2
15 6 2
16 6 2
17 6 2
18 6 2
19 6 2
20 6 2
21 6 2
22 6 2
23 6 2
24 6 2
25 6 2
26 6 2
27 6 2
28 6 2
29 6 2
30 6 2
31 6 2
32 6 2
33 6 2
34 6 2
35 6 2
36 6 2
37 6 2
38 6 2
39 6 2
40 6 2
41 6 2
42 6 2
43 6 2
44 6 2
45 6 2
46 6 2
47 6 2
48 6 2
49 6 2
0 7 2
1 7 2
2 7 2
3 7 2
4 7 2
5 7 2
6 7 2
7 7 2
8 7 2
9 7 2
10 7 2
11 7 2
12 7 2
13 7 2
14 7 2
15 7 2
16 7 2
17 7 2
18 7 2
19 7 2
20 7 2
21 7 2
22 7 2
23 7 2
24 7 2
25 7 2
26 7 2
27 7 2
28 7 2
29 7 2
30 7 2
31 7 2
32 7 2
33 7 2
34 7 2
35 7 2
36 7 2
37 7 2
38 7 2
39 7 2
40 7 2
41 7 2
42 7 2
43 7 2
44 7 2
45 7 2
46 7 2
47 7 2
48 7 2
49 7 2
0 8 2
1 8 2
2 8 2
3 8 2
4 8 2
5 8 2
6 8 2
7 8 2
8 8 2
9 8 2
10 8 2
11 8 2
12 8 2
13 8 2
14 8 2
15 8 2
16 8 2
17 8 2
18 8 2
19 8 2
20 8 2
21 8 2
22 8 2
23 8 2
24 8 2
25 8 2
26 8 2
27 8 2
28 8 2
29 8 2
30 8 2
31 8 2
32 8 2
33 8 2
34 8 2
35 8 2
36 8 2
37 8 2
38 8 2
39 8 2
40 8 2
41 8 2
42 8 2
43 8 2
44 8 2
45 8 2
46 8 2
47 8 2
48 8 2
49 8 2
0 9 2
1 9 2
2 9 2
3 9 2
4 9 2
[...]
POINT_DATA 15000
SCALARS sol178 float
LOOKUP_TABLE default
57.7721
57.769
57.766
57.7629
57.7599
57.7568
57.7538
57.7507
57.7477
57.7446
57.7416
57.7385
57.7355
57.7325
57.7294
57.7264
57.7233
57.7203
57.7172
57.7142
57.7112
57.7081
57.7051
57.702
57.699
57.696
57.6929
57.6899
57.6868
57.6838
57.6808
57.6777
57.6747
57.6717
57.6686
57.6656
57.6626
57.6595
57.6565
57.6535
57.6504
57.6474
57.6444
57.6413
57.6383
57.6353
57.6322
57.6292
57.6262
57.6231
57.6201
57.6171
57.6141
57.611
57.608
57.605
57.602
57.5989
57.5959
57.5929
57.5898
57.5868
57.5838
57.5808
57.5778
57.5747
57.5717
57.5687
57.5657
57.5626
57.5596
57.5566
57.5536
57.5506
57.5475
57.5445
57.5415
57.5385
57.5355
57.5325
57.5294
57.5264
57.5234
57.5204
57.5174
57.5144
57.5113
57.5083
57.5053
57.5023
57.4993
57.4963
57.4933
57.4903
57.4872
57.4842
57.4812
57.4782
57.4752
57.4722
57.4692
57.4662
57.4632
57.4602
57.4572
57.4541
57.4511
57.4481
57.4451
57.4421
57.4391
57.4361
57.4331
57.4301
57.4271
57.4241
57.4211
57.4181
57.4151
57.4121
57.4091
57.4061
57.4031
57.4001
57.3971
57.3941
57.3911
57.3881
57.3851
57.3821
57.3791
57.3761
57.3731
57.3701
57.3671
57.3641
57.3611
57.3581
57.3551
57.3522
57.3492
57.3462
57.3432
57.3402
57.3372
57.3342
57.3312
57.3282
57.3252
57.3222
57.3193
57.3163
57.3133
57.3103
57.3073
57.3043
57.3013
57.2983
57.2954
57.2924
57.2894
57.2864
57.2834
57.2804
57.2775
57.2745
57.2715
57.2685
57.2655
57.2625
57.2596
57.2566
57.2536
57.2506
57.2476
57.2447
57.2417
57.2387
57.2357
57.2328
57.2298
57.2268
57.2238
57.2208
57.2179
57.2149
57.2119
57.2089
57.206
57.203
57.2
57.1971
57.1941
57.1911
57.1881
57.1852
57.1822
57.1792
57.1763
57.1733
57.1703
57.1674
57.1644
57.1614
57.1585
57.1555
57.1525
57.1496
57.1466
57.1436
57.1407
57.1377
57.1347
57.1318
57.1288
57.1258
57.1229
57.1199
57.117
57.114
57.111
57.1081
57.1051
57.1022
57.0992
57.0962
57.0933
57.0903
57.0874
57.0844
57.0814
57.0785
57.0755
57.0726
57.0696
57.0667
57.0637
57.0608
57.0578
57.0549
57.0519
57.0489
57.046
57.043
57.0401
57.0371
57.0342
57.0312
57.0283
57.0253
57.0224
57.0194
57.0165
57.0135
57.0106
57.0077
57.0047
57.0018
56.9988
56.9959
56.9929
56.99
56.987
56.9841
56.9811
56.9782
56.9753
56.9723
56.9694
56.9664
56.9635
56.9606
56.9576
56.9547
56.9517
56.9488
56.9459
56.9429
56.94
56.937
56.9341
56.9312
56.9282
56.9253
56.9224
56.9194
56.9165
56.9136
56.9106
56.9077
56.9048
56.9018
56.8989
56.896
56.893
56.8901
56.8872
56.8842
56.8813
56.8784
56.8755
56.8725
56.8696
56.8667
56.8637
56.8608
56.8579
56.855
56.852
56.8491
56.8462
56.8433
56.8403
56.8374
56.8345
56.8316
56.8286
56.8257
56.8228
56.8199
56.817
56.814
56.8111
56.8082
56.8053
56.8024
56.7994
56.7965
56.7936
56.7907
56.7878
56.7848
56.7819
56.779
56.7761
56.7732
56.7703
56.7674
56.7644
56.7615
56.7586
56.7557
56.7528
56.7499
56.747
56.7441
56.7411
56.7382
56.7353
56.7324
56.7295
56.7266
56.7237
56.7208
56.7179
56.715
56.7121
56.7092
56.7062
56.7033
56.7004
56.6975
56.6946
56.6917
56.6888
56.6859
56.683
56.6801
56.6772
56.6743
56.6714
56.6685
56.6656
56.6627
56.6598
56.6569
56.654
56.6511
56.6482
56.6453
56.6424
56.6395
56.6366
56.6337
56.6308
56.6279
56.625
56.6221
56.6192
56.6163
56.6135
56.6106
56.6077
56.6048
56.6019
56.599
56.5961
56.5932
56.5903
56.5874
56.5845
56.5817
56.5788
56.5759
56.573
56.5701
56.5672
56.5643
56.5614
56.5586
56.5557
56.5528
56.5499
56.547
56.5441
56.5412
56.5384
56.5355
56.5326
56.5297
56.5268
56.524
56.5211
56.5182
56.5153
56.5124
56.5095
56.5067
56.5038
56.5009
56.498
56.4952
56.4923
56.4894
56.4865
56.4837
56.4808
56.4779
56.475
56.4722
56.4693
56.4664
56.4635
56.4607
56.4578
56.4549
56.452
56.4492
56.4463
56.4434
56.4406
56.4377
56.4348
56.432
56.4291
56.4262
56.4233
56.4205
56.4176
56.4147
56.4119
56.409
56.4062
56.4033
56.4004
56.3976
56.3947
56.3918
56.389
56.3861
56.3832
56.3804
56.3775
56.3747
56.3718
56.3689
56.3661
56.3632
56.3604
56.3575
56.3546
56.3518
56.3489
56.3461
56.3432
56.3404
56.3375
56.3346
56.3318
56.3289
56.3261
56.3232
56.3204
56.3175
56.3147
56.3118
56.309
56.3061
56.3033
56.3004
56.2976
56.2947
56.2919
56.289
56.2862
56.2833
56.2805
56.2776
56.2748
56.2719
56.2691
56.2662
56.2634
56.2605
56.2577
56.2548
56.252
56.2492
56.2463
56.2435
56.2406
56.2378
56.2349
56.2321
56.2293
56.2264
56.2236
56.2207
56.2179
56.2151
56.2122
56.2094
56.2065
56.2037
56.2009
56.198
56.1952
56.1924
56.1895
56.1867
56.1839
56.181
56.1782
56.1754
56.1725
56.1697
56.1669
56.164
56.1612
56.1584
56.1555
56.1527
56.1499
56.147
56.1442
56.1414
56.1385
56.1357
56.1329
56.1301
56.1272
56.1244
56.1216
56.1188
56.1159
56.1131
56.1103
56.1075
56.1046
56.1018
56.099
56.0962
56.0933
56.0905
56.0877
56.0849
56.0821
56.0792
56.0764
56.0736
56.0708
56.068
56.0651
56.0623
56.0595
56.0567
56.0539
56.0511
56.0482
56.0454
56.0426
56.0398
56.037
56.0342
56.0313
56.0285
56.0257
56.0229
56.0201
56.0173
56.0145
56.0117
56.0088
56.006
56.0032
56.0004
55.9976
55.9948
55.992
55.9892
55.9864
55.9836
55.9808
55.978
55.9751
55.9723
55.9695
55.9667
55.9639
55.9611
55.9583
55.9555
55.9527
55.9499
55.9471
55.9443
55.9415
55.9387
55.9359
55.9331
55.9303
55.9275
55.9247
55.9219
55.9191
55.9163
55.9135
55.9107
55.9079
55.9051
55.9023
55.8995
55.8967
55.8939
55.8911
55.8883
55.8855
55.8828
55.88
55.8772
55.8744
55.8716
55.8688
55.866
55.8632
55.8604
55.8576
55.8548
55.852
55.8493
55.8465
55.8437
55.8409
55.8381
55.8353
55.8325
55.8297
55.827
55.8242
55.8214
55.8186
55.8158
55.813
55.8103
55.8075
55.8047
55.8019
55.7991
55.7963
55.7936
55.7908
55.788
55.7852
55.7824
55.7797
55.7769
55.7741
55.7713
55.7685
55.7658
55.763
55.7602
55.7574
55.7547
55.7519
55.7491
55.7463
55.7436
55.7408
55.738
55.7352
55.7325
55.7297
55.7269
55.7242
55.7214
55.7186
55.7158
55.7131
55.7103
55.7075
55.7048
55.702
55.6992
55.6965
55.6937
55.6909
55.6882
55.6854
55.6826
55.6799
55.6771
55.6743
55.6716
55.6688
55.666
55.6633
55.6605
55.6578
55.655
55.6522
55.6495
55.6467
55.6439
55.6412
55.6384
55.6357
55.6329
55.6301
55.6274
55.6246
55.6219
55.6191
55.6164
55.6136
55.6108
55.6081
55.6053
55.6026
55.5998
55.5971
55.5943
55.5916
55.5888
55.5861
55.5833
55.5806
55.5778
55.5751
55.5723
55.5696
55.5668
55.5641
55.5613
55.5586
55.5558
55.5531
55.5503
55.5476
55.5448
55.5421
55.5393
55.5366
55.5338
55.5311
55.5283
55.5256
55.5229
55.5201
55.5174
55.5146
55.5119
55.5091
55.5064
55.5037
55.5009
55.4982
55.4954
55.4927
55.49
55.4872
55.4845
55.4818
55.479
55.4763
55.4735
55.4708
55.4681
55.4653
55.4626
55.4599
55.4571
55.4544
55.4517
55.4489
55.4462
55.4435
55.4407
55.438
55.4353
55.4325
55.4298
55.4271
55.4243
55.4216
55.4189
55.4162
55.4134
55.4107
55.408
55.4052
55.4025
55.3998
55.3971
55.3943
55.3916
55.3889
55.3862
55.3834
55.3807
55.378
55.3753
55.3725
55.3698
55.3671
55.3644
55.3617
55.3589
55.3562
55.3535
55.3508
55.3481
55.3453
55.3426
55.3399
55.3372
55.3345
55.3317
55.329
55.3263
55.3236
55.3209
55.3182
55.3155
55.3127
55.31
55.3073
55.3046
55.3019
55.2992
55.2965
55.2937
55.291
55.2883
55.2856
55.2829
55.2802
55.2775
55.2748
55.2721
55.2694
55.2667
55.2639
55.2612
55.2585
55.2558
55.2531
55.2504
55.2477
55.245
55.2423
55.2396
55.2369
55.2342
55.2315
55.2288
55.2261
55.2234
55.2207
55.218
55.2153
55.2126
55.2099
55.2072
55.2045
55.2018
55.1991
55.1964
55.1937
55.191
55.1883
55.1856
55.1829
55.1802
55.1775
55.1748
55.1721
55.1694
55.1667
55.164
55.1613
55.1586
55.1559
55.1533
55.1506
55.1479
55.1452
55.1425
55.1398
55.1371
55.1344
55.1317
55.129
55.1264
55.1237
55.121
55.1183
55.1156
55.1129
55.1102
55.1075
55.1049
55.1022
55.0995
55.0968
55.0941
55.0914
55.0888
55.0861
55.0834
55.0807
55.078
55.0753
55.0727
55.07
55.0673
55.0646
55.0619
55.0593
55.0566
55.0539
55.0512
55.0486
55.0459
55.0432
55.0405
55.0379
55.0352
55.0325
55.0298
55.0272
55.0245
55.0218
55.0191
55.0165
55.0138
55.0111
55.0084
55.0058
55.0031
55.0004
54.9978
54.9951
54.9924
54.9898
54.9871
54.9844
54.9817
54.9791
54.9764
54.9737
54.9711
54.9684
54.9657
54.9631
54.9604
54.9578
54.9551
54.9524
54.9498
54.9471
54.9444
54.9418
54.9391
54.9364
54.9338
54.9311
54.9285
54.9258
54.9231
54.9205
54.9178
54.9152
54.9125
54.9099
54.9072
54.9045
54.9019
54.8992
54.8966
54.8939
54.8913
54.8886
54.8859
54.8833
54.8806
54.878
54.8753
54.8727
54.87
54.8674
54.8647
54.8621
54.8594
54.8568
54.8541
54.8515
54.8488
54.8462
54.8435
54.8409
54.8382
54.8356
54.8329
54.8303
54.8276
54.825
54.8224
54.8197
54.8171
54.8144
54.8118
54.8091
54.8065
54.8038
54.8012
54.7986
54.7959
54.7933
54.7906
54.788
54.7854
54.7827
54.7801
54.7774
54.7748
54.7722
54.7695
54.7669
54.7642
54.7616
54.759
54.7563
54.7537
54.7511
54.7484
54.7458
54.7432
54.7405
54.7379
54.7353
54.7326
54.73
54.7274
54.7247
54.7221
54.7195
54.7168
54.7142
54.7116
54.709
54.7063
54.7037
54.7011
54.6984
54.6958
54.6932
54.6906
54.6879
54.6853
54.6827
54.6801
54.6774
54.6748
54.6722
54.6696
54.6669
54.6643
54.6617
54.6591
54.6564
54.6538
54.6512
54.6486
54.646
54.6433
54.6407
54.6381
54.6355
54.6329
54.6302
54.6276
54.625
54.6224
54.6198
54.6172
54.6145
54.6119
54.6093
54.6067
54.6041
54.6015
54.5989
54.5962
54.5936
54.591
54.5884
54.5858
54.5832
54.5806
54.578
54.5753
54.5727
54.5701
54.5675
54.5649
54.5623
54.5597
54.5571
54.5545
54.5519
54.5493
54.5467
54.544
54.5414
54.5388
54.5362
54.5336
54.531
54.5284
54.5258
54.5232
54.5206
54.518
54.5154
54.5128
54.5102
54.5076
54.505
54.5024
54.4998
54.4972
54.4946
54.492
54.4894
54.4868
54.4842
54.4816
54.479
54.4764
54.4738
54.4712
54.4686
54.466
54.4634
54.4609
54.4583
54.4557
54.4531
54.4505
54.4479
54.4453
54.4427
54.4401
54.4375
54.4349
54.4323
54.4297
54.4272
54.4246
54.422
54.4194
54.4168
54.4142
54.4116
54.409
54.4065
54.4039
54.4013
54.3987
54.3961
54.3935
54.3909
54.3884
54.3858
54.3832
54.3806
54.378
54.3755
54.3729
54.3703
54.3677
54.3651
54.3625
54.36
54.3574
54.3548
54.3522
54.3497
54.3471
54.3445
54.3419
54.3393
54.3368
54.3342
54.3316
54.329
54.3265
54.3239
54.3213
54.3187
54.3162
54.3136
54.311
54.3085
54.3059
54.3033
54.3007
54.2982
54.2956
54.293
54.2905
54.2879
54.2853
54.2827
54.2802
54.2776
54.275
54.2725
54.2699
54.2673
54.2648
54.2622
54.2596
54.2571
54.2545
54.252
54.2494
54.2468
54.2443
54.2417
54.2391
54.2366
54.234
54.2315
54.2289
54.2263
54.2238
54.2212
54.2187
54.2161
54.2135
54.211
54.2084
54.2059
54.2033
54.2007
54.1982
54.1956
54.1931
54.1905
54.188
54.1854
54.1829
54.1803
54.1778
54.1752
54.1726
54.1701
54.1675
54.165
54.1624
54.1599
54.1573
54.1548
54.1522
54.1497
54.1471
54.1446
54.142
54.1395
54.1369
54.1344
54.1318
54.1293
54.1268
54.1242
54.1217
54.1191
54.1166
54.114
54.1115
54.1089
54.1064
54.1039
54.1013
54.0988
54.0962
54.0937
54.0911
54.0886
54.0861
54.0835
54.081
54.0784
54.0759
54.0734
54.0708
54.0683
54.0658
54.0632
54.0607
54.0581
54.0556
54.0531
54.0505
54.048
54.0455
54.0429
54.0404
54.0379
54.0353
54.0328
54.0303
54.0277
54.0252
54.0227
54.0201
54.0176
54.0151
54.0126
54.01
54.0075
54.005
54.0024
53.9999
53.9974
53.9949
53.9923
53.9898
53.9873
53.9848
53.9822
53.9797
53.9772
53.9747
53.9721
53.9696
53.9671
53.9646
53.962
53.9595
53.957
53.9545
53.952
53.9494
53.9469
53.9444
53.9419
53.9394
53.9368
53.9343
53.9318
53.9293
53.9268
53.9242
53.9217
53.9192
53.9167
53.9142
53.9117
53.9092
53.9066
53.9041
53.9016
53.8991
53.8966
53.8941
53.8916
53.889
53.8865
53.884
53.8815
53.879
53.8765
53.874
53.8715
53.869
53.8665
53.8639
53.8614
53.8589
53.8564
53.8539
53.8514
53.8489
53.8464
53.8439
53.8414
53.8389
53.8364
53.8339
53.8314
53.8289
53.8264
53.8239
53.8214
53.8189
53.8164
53.8139
53.8114
53.8089
53.8064
53.8039
53.8014
53.7989
53.7964
53.7939
53.7914
53.7889
53.7864
53.7839
53.7814
53.7789
53.7764
53.7739
53.7714
53.7689
53.7664
53.7639
53.7614
53.7589
53.7564
53.7539
53.7515
53.749
53.7465
53.744
53.7415
53.739
53.7365
53.734
53.7315
53.729
53.7266
53.7241
53.7216
53.7191
53.7166
53.7141
53.7116
53.7091
53.7067
53.7042
53.7017
53.6992
53.6967
53.6942
53.6918
53.6893
53.6868
53.6843
53.6818
53.6793
53.6769
53.6744
53.6719
53.6694
53.6669
53.6645
53.662
53.6595
53.657
53.6546
53.6521
53.6496
53.6471
53.6446
53.6422
53.6397
53.6372
53.6347
53.6323
53.6298
53.6273
53.6248
53.6224
53.6199
53.6174
53.615
53.6125
53.61
53.6075
53.6051
53.6026
53.6001
53.5977
53.5952
53.5927
53.5903
53.5878
53.5853
53.5829
53.5804
53.5779
53.5755
53.573
53.5705
53.5681
53.5656
53.5631
53.5607
53.5582
53.5557
53.5533
53.5508
53.5484
53.5459
53.5434
53.541
53.5385
53.536
53.5336
53.5311
53.5287
53.5262
53.5237
53.5213
53.5188
53.5164
53.5139
53.5115
53.509
53.5065
53.5041
53.5016
53.4992
53.4967
53.4943
53.4918
53.4894
53.4869
53.4845
53.482
53.4796
53.4771
53.4747
53.4722
53.4698
53.4673
53.4649
53.4624
53.46
53.4575
53.4551
53.4526
53.4502
53.4477
53.4453
53.4428
53.4404
53.4379
53.4355
53.433
53.4306
53.4281
53.4257
53.4233
53.4208
53.4184
53.4159
53.4135
53.411
53.4086
53.4062
53.4037
53.4013
53.3988
53.3964
53.394
53.3915
53.3891
53.3866
53.3842
53.3818
53.3793
53.3769
53.3745
53.372
53.3696
53.3671
53.3647
53.3623
53.3598
53.3574
53.355
53.3525
53.3501
53.3477
53.3452
53.3428
53.3404
53.3379
53.3355
53.3331
53.3307
53.3282
53.3258
53.3234
53.3209
53.3185
53.3161
53.3137
53.3112
53.3088
53.3064
53.3039
53.3015
53.2991
53.2967
53.2942
53.2918
53.2894
53.287
53.2846
53.2821
53.2797
53.2773
53.2749
53.2724
53.27
53.2676
53.2652
53.2628
53.2603
53.2579
53.2555
53.2531
53.2507
53.2482
53.2458
53.2434
53.241
53.2386
53.2362
53.2337
53.2313
53.2289
53.2265
53.2241
53.2217
53.2193
53.2168
53.2144
53.212
53.2096
53.2072
53.2048
53.2024
53.2
53.1975
53.1951
53.1927
53.1903
53.1879
53.1855
53.1831
53.1807
53.1783
53.1759
53.1735
53.1711
53.1686
53.1662
53.1638
53.1614
53.159
53.1566
53.1542
53.1518
53.1494
53.147
53.1446
53.1422
53.1398
53.1374
53.135
53.1326
53.1302
53.1278
53.1254
53.123
53.1206
53.1182
53.1158
53.1134
53.111
53.1086
53.1062
53.1038
53.1014
53.099
53.0966
53.0942
53.0918
53.0894
53.087
53.0847
53.0823
53.0799
53.0775
53.0751
53.0727
53.0703
53.0679
53.0655
53.0631
53.0607
53.0583
53.056
53.0536
53.0512
53.0488
53.0464
53.044
53.0416
53.0392
53.0369
53.0345
53.0321
53.0297
53.0273
53.0249
53.0225
53.0202
53.0178
53.0154
53.013
53.0106
53.0082
53.0059
53.0035
53.0011
52.9987
52.9963
52.994
52.9916
52.9892
52.9868
52.9844
52.9821
52.9797
52.9773
52.9749
52.9725
52.9702
52.9678
52.9654
52.963
52.9607
52.9583
52.9559
52.9535
52.9512
52.9488
52.9464
52.9441
52.9417
52.9393
52.9369
52.9346
52.9322
52.9298
52.9275
52.9251
52.9227
52.9203
52.918
52.9156
52.9132
52.9109
52.9085
52.9061
52.9038
52.9014
52.899
52.8967
52.8943
52.8919
52.8896
52.8872
52.8848
52.8825
52.8801
52.8778
52.8754
52.873
52.8707
52.8683
52.8659
52.8636
52.8612
52.8589
52.8565
52.8541
52.8518
52.8494
52.8471
52.8447
52.8424
52.84
52.8376
52.8353
52.8329
52.8306
52.8282
52.8259
52.8235
52.8212
52.8188
52.8164
52.8141
52.8117
52.8094
52.807
52.8047
52.8023
52.8
52.7976
52.7953
52.7929
52.7906
52.7882
52.7859
52.7835
52.7812
52.7788
52.7765
52.7741
52.7718
52.7694
52.7671
52.7647
52.7624
52.7601
52.7577
52.7554
52.753
52.7507
52.7483
52.746
52.7437
52.7413
52.739
52.7366
52.7343
52.7319
52.7296
52.7273
52.7249
52.7226
52.7202
52.7179
52.7156
52.7132
52.7109
52.7086
52.7062
52.7039
52.7015
52.6992
52.6969
52.6945
52.6922
52.6899
52.6875
52.6852
52.6829
52.6805
52.6782
52.6759
52.6735
52.6712
52.6689
52.6665
52.6642
52.6619
52.6595
52.6572
52.6549
52.6526
52.6502
52.6479
52.6456
52.6432
52.6409
52.6386
52.6363
52.6339
52.6316
52.6293
52.627
52.6246
52.6223
52.62
52.6177
52.6153
52.613
52.6107
52.6084
52.606
52.6037
52.6014
52.5991
52.5968
52.5944
52.5921
52.5898
52.5875
52.5852
52.5828
52.5805
52.5782
52.5759
52.5736
52.5713
52.5689
52.5666
52.5643
52.562
52.5597
52.5574
52.5551
52.5527
52.5504
52.5481
52.5458
52.5435
52.5412
52.5389
52.5365
52.5342
52.5319
52.5296
52.5273
52.525
52.5227
52.5204
52.5181
52.5158
52.5135
52.5111
52.5088
52.5065
52.5042
52.5019
52.4996
52.4973
52.495
52.4927
52.4904
52.4881
52.4858
52.4835
52.4812
52.4789
52.4766
52.4743
52.472
52.4697
52.4674
52.4651
52.4628
52.4605
52.4582
52.4559
52.4536
52.4513
52.449
52.4467
52.4444
52.4421
52.4398
52.4375
52.4352
52.4329
52.4306
52.4283
52.426
52.4237
52.4214
52.4191
52.4168
52.4145
52.4122
52.41
52.4077
52.4054
52.4031
52.4008
52.3985
52.3962
52.3939
52.3916
52.3893
52.387
52.3848
52.3825
52.3802
52.3779
52.3756
52.3733
52.371
52.3688
52.3665
52.3642
52.3619
52.3596
52.3573
52.355
52.3528
52.3505
52.3482
52.3459
52.3436
52.3413
52.3391
52.3368
52.3345
52.3322
52.3299
52.3277
52.3254
52.3231
52.3208
52.3185
52.3163
52.314
52.3117
52.3094
52.3072
52.3049
52.3026
52.3003
52.2981
52.2958
52.2935
52.2912
52.289
52.2867
52.2844
52.2821
52.2799
52.2776
52.2753
52.273
52.2708
52.2685
52.2662
52.264
52.2617
52.2594
52.2572
52.2549
52.2526
52.2504
52.2481
52.2458
52.2436
52.2413
52.239
52.2368
52.2345
52.2322
52.23
52.2277
52.2254
52.2232
52.2209
52.2186
52.2164
52.2141
52.2119
52.2096
52.2073
52.2051
52.2028
52.2005
52.1983
52.196
52.1938
52.1915
52.1892
52.187
52.1847
52.1825
52.1802
52.178
52.1757
52.1734
52.1712
52.1689
52.1667
52.1644
52.1622
52.1599
52.1577
52.1554
52.1532
52.1509
52.1487
52.1464
52.1441
52.1419
52.1396
52.1374
52.1351
52.1329
52.1306
52.1284
52.1261
52.1239
52.1217
52.1194
52.1172
52.1149
52.1127
52.1104
52.1082
52.1059
52.1037
52.1014
52.0992
52.0969
52.0947
52.0925
52.0902
52.088
52.0857
52.0835
52.0812
52.079
52.0768
52.0745
52.0723
52.07
52.0678
52.0656
52.0633
52.0611
52.0588
52.0566
52.0544
52.0521
52.0499
52.0477
52.0454
52.0432
52.0409
52.0387
52.0365
52.0342
52.032
52.0298
52.0275
52.0253
52.0231
52.0208
52.0186
52.0164
52.0141
52.0119
52.0097
52.0074
52.0052
52.003
52.0008
51.9985
51.9963
51.9941
51.9918
51.9896
51.9874
51.9852
51.9829
51.9807
51.9785
51.9763
51.974
51.9718
51.9696
51.9674
51.9651
51.9629
51.9607
51.9585
51.9562
51.954
51.9518
51.9496
51.9474
51.9451
51.9429
51.9407
51.9385
51.9362
51.934
51.9318
51.9296
51.9274
51.9252
51.9229
51.9207
51.9185
51.9163
51.9141
51.9119
51.9096
51.9074
51.9052
51.903
51.9008
51.8986
51.8964
51.8941
51.8919
51.8897
51.8875
51.8853
51.8831
51.8809
51.8787
51.8764
51.8742
51.872
51.8698
51.8676
51.8654
51.8632
51.861
51.8588
51.8566
51.8544
51.8522
51.85
51.8477
51.8455
51.8433
51.8411
51.8389
51.8367
51.8345
51.8323
51.8301
51.8279
51.8257
51.8235
51.8213
51.8191
51.8169
51.8147
51.8125
51.8103
51.8081
51.8059
51.8037
51.8015
51.7993
51.7971
51.7949
51.7927
51.7905
51.7883
51.7861
51.7839
51.7817
51.7795
51.7773
51.7751
51.7729
51.7708
51.7686
51.7664
51.7642
51.762
51.7598
51.7576
51.7554
51.7532
51.751
51.7488
51.7466
51.7445
51.7423
51.7401
51.7379
51.7357
51.7335
51.7313
51.7291
51.7269
51.7248
51.7226
51.7204
51.7182
51.716
51.7138
51.7116
51.7095
51.7073
51.7051
51.7029
51.7007
51.6985
51.6964
51.6942
51.692
51.6898
51.6876
51.6855
51.6833
51.6811
51.6789
51.6767
51.6746
51.6724
51.6702
51.668
51.6658
51.6637
51.6615
51.6593
51.6571
51.655
51.6528
51.6506
51.6484
51.6463
51.6441
51.6419
51.6397
51.6376
51.6354
51.6332
51.6311
51.6289
51.6267
51.6245
51.6224
51.6202
51.618
51.6159
51.6137
51.6115
51.6093
51.6072
51.605
51.6028
51.6007
51.5985
51.5963
51.5942
51.592
51.5898
51.5877
51.5855
51.5834
51.5812
51.579
51.5769
51.5747
51.5725
51.5704
51.5682
51.566
51.5639
51.5617
51.5596
51.5574
51.5552
51.5531
51.5509
51.5488
51.5466
51.5444
51.5423
51.5401
51.538
51.5358
51.5337
51.5315
51.5293
51.5272
51.525
51.5229
51.5207
51.5186
51.5164
51.5143
51.5121
51.51
51.5078
51.5057
51.5035
51.5013
51.4992
51.497
51.4949
51.4927
51.4906
51.4884
51.4863
51.4841
51.482
51.4799
51.4777
51.4756
51.4734
51.4713
51.4691
51.467
51.4648
51.4627
51.4605
51.4584
51.4562
51.4541
51.452
51.4498
51.4477
51.4455
51.4434
51.4412
51.4391
51.437
51.4348
51.4327
51.4305
51.4284
51.4263
51.4241
51.422
51.4198
51.4177
51.4156
51.4134
51.4113
51.4091
51.407
51.4049
51.4027
51.4006
51.3985
51.3963
51.3942
51.3921
51.3899
51.3878
51.3857
51.3835
51.3814
51.3793
51.3771
51.375
51.3729
51.3707
51.3686
51.3665
51.3643
51.3622
51.3601
51.358
51.3558
51.3537
51.3516
51.3494
51.3473
51.3452
51.3431
51.3409
51.3388
51.3367
51.3346
51.3324
51.3303
51.3282
51.3261
51.3239
51.3218
51.3197
51.3176
51.3154
51.3133
51.3112
51.3091
51.307
51.3048
51.3027
51.3006
51.2985
51.2964
51.2942
51.2921
51.29
51.2879