# vtk DataFile Version 2.0
vtk output
ASCII
DATASET STRUCTURED_GRID
DIMENSIONS 50 10 30
POINTS 15000 float
0 0 0
1 0 0
2 0 0
3 0 0
4 0 0
5 0 0
6 0 0
7 0 0
8 0 0
9 0 0
10 0 0
11 0 0
12 0 0
13 0 0
14 0 0
15 0 0
16 0 0
17 0 0
18 0 0
19 0 0
20 0 0
21 0 0
22 0 0
23 0 0
24 0 0
25 0 0
26 0 0
27 0 0
28 0 0
29 0 0
30 0 0
31 0 0
32 0 0
33 0 0
34 0 0
35 0 0
36 0 0
37 0 0
38 0 0
39 0 0
40 0 0
41 0 0
42 0 0
43 0 0
44 0 0
45 0 0
46 0 0
47 0 0
48 0 0
49 0 0
0 1 0
1 1 0
2 1 0
3 1 0
4 1 0
5 1 0
6 1 0
7 1 0
8 1 0
9 1 0
10 1 0
11 1 0
12 1 0
13 1 0
14 1 0
15 1 0
16 1 0
17 1 0
18 1 0
19 1 0
20 1 0
21 1 0
22 1 0
23 1 0
24 1 0
25 1 0
26 1 0
27 1 0
28 1 0
29 1 0
30 1 0
31 1 0
32 1 0
33 1 0
34 1 0
35 1 0
36 1 0
37 1 0
38 1 0
39 1 0
40 1 0
41 1 0
42 1 0
43 1 0
44 1 0
45 1 0
46 1 0
47 1 0
48 1 0
49 1 0
0 2 0
1 2 0
2 2 0
3 2 0
4 2 0
5 2 0
6 2 0
7 2 0
8 2 0
9 2 0
10 2 0
11 2 0
12 2 0
13 2 0
14 2 0
15 2 0
16 2 0
17 2 0
18 2 0
19 2 0
20 2 0
21 2 0
22 2 0
23 2 0
24 2 0
25 2 0
26 2 0
27 2 0
28 2 0
29 2 0
30 2 0
31 2 0
32 2 0
33 2 0
34 2 0
35 2 0
36 2 0
37 2 0
38 2 0
39 2 0
40 2 0
41 2 0
42 2 0
43 2 0
44 2 0
45 2 0
46 2 0
47 2 0
48 2 0
49 2 0
0 3 0
1 3 0
2 3 0
3 3 0
4 3 0
5 3 0
6 3 0
7 3 0
8 3 0
9 3 0
10 3 0
11 3 0
12 3 0
13 3 0
14 3 0
15 3 0
16 3 0
17 3 0
18 3 0
19 3 0
20 3 0
21 3 0
22 3 0
23 3 0
24 3 0
25 3 0
26 3 0
27 3 0
28 3 0
29 3 0
30 3 0
31 3 0
32 3 0
33 3 0
34 3 0
35 3 0
36 3 0
37 3 0
38 3 0
39 3 0
40 3 0
41 3 0
42 3 0
43 3 0
44 3 0
45 3 0
46 3 0
47 3 0
48 3 0
49 3 0
0 4 0
1 4 0
2 4 0
3 4 0
4 4 0
5 4 0
6 4 0
7 4 0
8 4 0
9 4 0
10 4 0
11 4 0
12 4 0
13 4 0
14 4 0
15 4 0
16 4 0
17 4 0
18 4 0
19 4 0
20 4 0
21 4 0
22 4 0
23 4 0
24 4 0
25 4 0
26 4 0
27 4 0
28 4 0
29 4 0
30 4 0
31 4 0
32 4 0
33 4 0
34 4 0
35 4 0
36 4 0
37 4 0
38 4 0
39 4 0
40 4 0
41 4 0
42 4 0
43 4 0
44 4 0
45 4 0
46 4 0
47 4 0
48 4 0
49 4 0
0 5 0
1 5 0
2 5 0
3 5 0
4 5 0
5 5 0
6 5 0
7 5 0
8 5 0
9 5 0
10 5 0
11 5 0
12 5 0
13 5 0
14 5 0
15 5 0
16 5 0
17 5 0
18 5 0
19 5 0
20 5 0
21 5 0
22 5 0
23 5 0
24 5 0
25 5 0
26 5 0
27 5 0
28 5 0
29 5 0
30 5 0
31 5 0
32 5 0
33 5 0
34 5 0
35 5 0
36 5 0
37 5 0
38 5 0
39 5 0
40 5 0
41 5 0
42 5 0
43 5 0
44 5 0
45 5 0
46 5 0
47 5 0
48 5 0
49 5 0
0 6 0
1 6 0
2 6 0
3 6 0
4 6 0
5 6 0
6 6 0
7 6 0
8 6 0
9 6 0
10 6 0
11 6 0
12 6 0
13 6 0
14 6 0
15 6 0
16 6 0
17 6 0
18 6 0
19 6 0
20 6 0
21 6 0
22 6 0
23 6 0
24 6 0
25 6 0
26 6 0
27 6 0
28 6 0
29 6 0
30 6 0
31 6 0
32 6 0
33 6 0
34 6 0
35 6 0
36 6 0
37 6 0
38 6 0
39 6 0
40 6 0
41 6 0
42 6 0
43 6 0
44 6 0
45 6 0
46 6 0
47 6 0
48 6 0
49 6 0
0 7 0
1 7 0
2 7 0
3 7 0
4 7 0
5 7 0
6 7 0
7 7 0
8 7 0
9 7 0
10 7 0
11 7 0
12 7 0
13 7 0
14 7 0
15 7 0
16 7 0
17 7 0
18 7 0
19 7 0
20 7 0
21 7 0
22 7 0
23 7 0
24 7 0
25 7 0
26 7 0
27 7 0
28 7 0
29 7 0
30 7 0
31 7 0
32 7 0
33 7 0
34 7 0
35 7 0
36 7 0
37 7 0
38 7 0
39 7 0
40 7 0
41 7 0
42 7 0
43 7 0
44 7 0
45 7 0
46 7 0
47 7 0
48 7 0
49 7 0
0 8 0
1 8 0
2 8 0
3 8 0
4 8 0
5 8 0
6 8 0
7 8 0
8 8 0
9 8 0
10 8 0
11 8 0
12 8 0
13 8 0
14 8 0
15 8 0
16 8 0
17 8 0
18 8 0
19 8 0
20 8 0
21 8 0
22 8 0
23 8 0
24 8 0
25 8 0
26 8 0
27 8 0
28 8 0
29 8 0
30 8 0
31 8 0
32 8 0
33 8 0
34 8 0
35 8 0
36 8 0
37 8 0
38 8 0
39 8 0
40 8 0
41 8 0
42 8 0
43 8 0
44 8 0
45 8 0
46 8 0
47 8 0
48 8 0
49 8 0
0 9 0
1 9 0
2 9 0
3 9 0
4 9 0
5 9 0
6 9 0
7 9 0
8 9 0
9 9 0
10 9 0
11 9 0
12 9 0
13 9 0
14 9 0
15 9 0
16 9 0
17 9 0
18 9 0
19 9 0
20 9 0
21 9 0
22 9 0
23 9 0
24 9 0
25 9 0
26 9 0
27 9 0
28 9 0
29 9 0
30 9 0
31 9 0
32 9 0
33 9 0
34 9 0
35 9 0
36 9 0
37 9 0
38 9 0
39 9 0
40 9 0
41 9 0
42 9 0
43 9 0
44 9 0
45 9 0
46 9 0
47 9 0
48 9 0
49 9 0
0 0 1
1 0 1
2 0 1
3 0 1
4 0 1
5 0 1
6 0 1
7 0 1
8 0 1
9 0 1
10 0 1
11 0 1
12 0 1
13 0 1
14 0 1
15 0 1
16 0 1
17 0 1
18 0 1
19 0 1
20 0 1
21 0 1
22 0 1
23 0 1
24 0 1
25 0 1
26 0 1
27 0 1
28 0 1
29 0 1
30 0 1
31 0 1
32 0 1
33 0 1
34 0 1
35 0 1
36 0 1
37 0 1
38 0 1
39 0 1
40 0 1
41 0 1
42 0 1
43 0 1
44 0 1
45 0 1
46 0 1
47 0 1
48 0 1
49 0 1
0 1 1
1 1 1
2 1 1
3 1 1
4 1 1
5 1 1
6 1 1
7 1 1
8 1 1
9 1 1
10 1 1
11 1 1
12 1 1
13 1 1
14 1 1
15 1 1
16 1 1
17 1 1
18 1 1
19 1 1
20 1 1
21 1 1
22 1 1
23 1 1
24 1 1
25 1 1
26 1 1
27 1 1
28 1 1
29 1 1
30 1 1
31 1 1
32 1 1
33 1 1
34 1 1
35 1 1
36 1 1
37 1 1
38 1 1
39 1 1
40 1 1
41 1 1
42 1 1
43 1 1
44 1 1
45 1 1
46 1 1
47 1 1
48 1 1
49 1 1
0 2 1
1 2 1
2 2 1
3 2 1
4 2 1
5 2 1
6 2 1
7 2 1
8 2 1
9 2 1
10 2 1
11 2 1
12 2 1
13 2 1
14 2 1
15 2 1
16 2 1
17 2 1
18 2 1
19 2 1
20 2 1
21 2 1
22 2 1
23 2 1
24 2 1
25 2 1
26 2 1
27 2 1
28 2 1
29 2 1
30 2 1
31 2 1
32 2 1
33 2 1
34 2 1
35 2 1
36 2 1
37 2 1
38 2 1
39 2 1
40 2 1
41 2 1
42 2 1
43 2 1
44 2 1
45 2 1
46 2 1
47 2 1
48 2 1
49 2 1
0 3 1
1 3 1
2 3 1
3 3 1
4 3 1
5 3 1
6 3 1
7 3 1
8 3 1
9 3 1
10 3 1
11 3 1
12 3 1
13 3 1
14 3 1
15 3 1
16 3 1
17 3 1
18 3 1
19 3 1
20 3 1
21 3 1
22 3 1
23 3 1
24 3 1
25 3 1
26 3 1
27 3 1
28 3 1
29 3 1
30 3 1
31 3 1
32 3 1
33 3 1
34 3 1
35 3 1
36 3 1
37 3 1
38 3 1
39 3 1
40 3 1
41 3 1
42 3 1
43 3 1
44 3 1
45 3 1
46 3 1
47 3 1
48 3 1
49 3 1
0 4 1
1 4 1
2 4 1
3 4 1
4 4 1
5 4 1
6 4 1
7 4 1
8 4 1
9 4 1
10 4 1
11 4 1
12 4 1
13 4 1
14 4 1
15 4 1
16 4 1
17 4 1
18 4 1
19 4 1
20 4 1
21 4 1
22 4 1
23 4 1
24 4 1
25 4 1
26 4 1
27 4 1
28 4 1
29 4 1
30 4 1
31 4 1
32 4 1
33 4 1
34 4 1
35 4 1
36 4 1
37 4 1
38 4 1
39 4 1
40 4 1
41 4 1
42 4 1
43 4 1
44 4 1
45 4 1
46 4 1
47 4 1
48 4 1
49 4 1
0 5 1
1 5 1
2 5 1
3 5 1
4 5 1
5 5 1
6 5 1
7 5 1
8 5 1
9 5 1
10 5 1
11 5 1
12 5 1
13 5 1
14 5 1
15 5 1
16 5 1
17 5 1
18 5 1
19 5 1
20 5 1
21 5 1
22 5 1
23 5 1
24 5 1
25 5 1
26 5 1
27 5 1
28 5 1
29 5 1
30 5 1
31 5 1
32 5 1
33 5 1
34 5 1
35 5 1
36 5 1
37 5 1
38 5 1
39 5 1
40 5 1
41 5 1
42 5 1
43 5 1
44 5 1
45 5 1
46 5 1
47 5 1
48 5 1
49 5 1
0 6 1
1 6 1
2 6 1
3 6 1
4 6 1
5 6 1
6 6 1
7 6 1
8 6 1
9 6 1
10 6 1
11 6 1
12 6 1
13 6 1
14 6 1
15 6 1
16 6 1
17 6 1
18 6 1
19 6 1
20 6 1
21 6 1
22 6 1
23 6 1
24 6 1
25 6 1
26 6 1
27 6 1
28 6 1
29 6 1
30 6 1
31 6 1
32 6 1
33 6 1
34 6 1
35 6 1
36 6 1
37 6 1
38 6 1
39 6 1
40 6 1
41 6 1
42 6 1
43 6 1
44 6 1
45 6 1
46 6 1
47 6 1
48 6 1
49 6 1
0 7 1
1 7 1
2 7 1
3 7 1
4 7 1
5 7 1
6 7 1
7 7 1
8 7 1
9 7 1
10 7 1
11 7 1
12 7 1
13 7 1
14 7 1
15 7 1
16 7 1
17 7 1
18 7 1
19 7 1
20 7 1
21 7 1
22 7 1
23 7 1
24 7 1
25 7 1
26 7 1
27 7 1
28 7 1
29 7 1
30 7 1
31 7 1
32 7 1
33 7 1
34 7 1
35 7 1
36 7 1
37 7 1
38 7 1
39 7 1
40 7 1
41 7 1
42 7 1
43 7 1
44 7 1
45 7 1
46 7 1
47 7 1
48 7 1
49 7 1
0 8 1
1 8 1
2 8 1
3 8 1
4 8 1
5 8 1
6 8 1
7 8 1
8 8 1
9 8 1
10 8 1
11 8 1
12 8 1
13 8 1
14 8 1
15 8 1
16 8 1
17 8 1
18 8 1
19 8 1
20 8 1
21 8 1
22 8 1
23 8 1
24 8 1
25 8 1
26 8 1
27 8 1
28 8 1
29 8 1
30 8 1
31 8 1
32 8 1
33 8 1
34 8 1
35 8 1
36 8 1
37 8 1
38 8 1
39 8 1
40 8 1
41 8 1
42 8 1
43 8 1
44 8 1
45 8 1
46 8 1
47 8 1
48 8 1
49 8 1
0 9 1
1 9 1
2 9 1
3 9 1
4 9 1
5 9 1
6 9 1
7 9 1
8 9 1
9 9 1
10 9 1
11 9 1
12 9 1
13 9 1
14 9 1
15 9 1
16 9 1
17 9 1
18 9 1
19 9 1
20 9 1
21 9 1
22 9 1
23 9 1
24 9 1
25 9 1
26 9 1
27 9 1
28 9 1
29 9 1
30 9 1
31 9 1
32 9 1
33 9 1
34 9 1
35 9 1
36 9 1
37 9 1
38 9 1
39 9 1
40 9 1
41 9 1
42 9 1
43 9 1
44 9 1
45 9 1
46 9 1
47 9 1
48 9 1
49 9 1
0 0 2
1 0 2
2 0 2
3 0 2
4 0 2
5 0 2
6 0 2
7 0 2
8 0 2
9 0 2
10 0 2
11 0 2
12 0 2
13 0 2
14 0 2
15 0 2
16 0 2
17 0 2
18 0 2
19 0 2
20 0 2
21 0 2
22 0 2
23 0 2
24 0 2
25 0 2
26 0 2
27 0 2
28 0 2
29 0 2
30 0 2
31 0 2
32 0 2
33 0 2
34 0 2
35 0 2
36 0 2
37 0 2
38 0 2
39 0 2
40 0 2
41 0 2
42 0 2
43 0 2
44 0 2
45 0 2
46 0 2
47 0 2
48 0 2
49 0 2
0 1 2
1 1 2
2 1 2
3 1 2
4 1 2
5 1 2
6 1 2
7 1 2
8 1 2
9 1 2
10 1 2
11 1 2
12 1 2
13 1 2
14 1 2
15 1 2
16 1 2
17 1 2
18 1 2
19 1 2
20 1 2
21 1 2
22 1 2
23 1 2
24 1 2
25 1 2
26 1 2
27 1 2
28 1 2
29 1 2
30 1 2
31 1 2
32 1 2
33 1 2
34 1 2
35 1 2
36 1 2
37 1 2
38 1 2
39 1 2
40 1 2
41 1 2
42 1 2
43 1 2
44 1 2
45 1 2
46 1 2
47 1 2
48 1 2
49 1 2
0 2 2
1 2 2
2 2 2
3 2 2
4 2 2
5 2 2
6 2 2
7 2 2
8 2 2
9 2 2
10 2 2
11 2 2
12 2 2
13 2 2
14 2 2
15 2 2
16 2 2
17 2 2
18 2 2
19 2 2
20 2 2
21 2 2
22 2 2
23 2 2
24 2 2
25 2 2
26 2 2
27 2 2
28 2 2
29 2 2
30 2 2
31 2 2
32 2 2
33 2 2
34 2 2
35 2 2
36 2 2
37 2 2
38 2 2
39 2 2
40 2 2
41 2 2
42 2 2
43 2 2
44 2 2
45 2 2
46 2 2
47 2 2
48 2 2
49 2 2
0 3 2
1 3 2
2 3 2
3 3 2
4 3 2
5 3 2
6 3 2
7 3 2
8 3 2
9 3 2
10 3 2
11 3 2
12 3 2
13 3 2
14 3 2
15 3 2
16 3 2
17 3 2
18 3 2
19 3 2
20 3 2
21 3 2
22 3 2
23 3 2
24 3 2
25 3 2
26 3 2
27 3 2
28 3 2
29 3 2
30 3 2
31 3 2
32 3 2
33 3 2
34 3 2
35 3 2
36 3 2
37 3 2
38 3 2
39 3 2
40 3 2
41 3 2
42 3 2
43 3 2
44 3 2
45 3 2
46 3 2
47 3 2
48 3 2
49 3 2
0 4 2
1 4 2
2 4 2
3 4 2
4 4 2
5 4 2
6 4 2
7 4 2
8 4 2
9 4 2
10 4 2
11 4 2
12 4 2
13 4 2
14 4 2
15 4 2
16 4 2
17 4 2
18 4 2
19 4 2
20 4 2
21 4 2
22 4 2
23 4 2
24 4 2
25 4 2
26 4 2
27 4 2
28 4 2
29 4 2
30 4 2
31 4 2
32 4 2
33 4 2
34 4 2
35 4 2
36 4 2
37 4 2
38 4 2
39 4 2
40 4 2
41 4 2
42 4 2
43 4 2
44 4 2
45 4 2
46 4 2
47 4 2
48 4 2
49 4 2
0 5 2
1 5 2
2 5 2
3 5 2
4 5 2
5 5 2
6 5 2
7 5 2
8 5 2
9 5 2
10 5 2
11 5 2
12 5 2
13 5 2
14 5 2
15 5 2
16 5 2
17 5 2
18 5 2
19 5 2
20 5 2
21 5 2
22 5 2
23 5 2
24 5 2
25 5 2
26 5 2
27 5 2
28 5 2
29 5 2
30 5 2
31 5 2
32 5 2
33 5 2
34 5 2
35 5 2
36 5 2
37 5 2
38 5 2
39 5 2
40 5 2
41 5 2
42 5 2
43 5 2
44 5 2
45 5 2
46 5 2
47 5 2
48 5 2
49 5 2
0 6 2
1 6 2
2 6 2
3 6 2
4 6 2
5 6 2
6 6 2
7 6 2
8 6 2
9 6 2
10 6 2
11 6 2
12 6 2
13 6 2
14 6 2
15 6 2
16 6 2
17 6 2
18 6 2
19 6 2
20 6 2
21 6 2
22 6 2
23 6 2
24 6 2
25 6 2
26 6 2
27 6 2
28 6 2
29 6 2
30 6 2
31 6 2
32 6 2
33 6 2
34 6 2
35 6 2
36 6 2
37 6 2
38 6 2
39 6 2
40 6 2
41 6 2
42 6 2
43 6 2
44 6 2
45 6 2
46 6 2
47 6 2
48 6 2
49 6 2
0 7 2
1 7 2
2 7 2
3 7 2
4 7 2
5 7 2
6 7 2
7 7 2
8 7 2
9 7 2
10 7 2
11 7 2
12 7 2
13 7 2
14 7 2
15 7 2
16 7 2
17 7 2
18 7 2
19 7 2
20 7 2
21 7 2
22 7 2
23 7 2
24 7 2
25 7 2
26 7 2
27 7 2
28 7 2
29 7 2
30 7 2
31 7 2
32 7 2
33 7 2
34 7 2
35 7 2
36 7 2
37 7 2
38 7 2
39 7 2
40 7 2
41 7 2
42 7 2
43 7 2
44 7 2
45 7 2
46 7 2
47 7 2
48 7 2
49 7 2
0 8 2
1 8 2
2 8 2
3 8 2
4 8 2
5 8 2
6 8 2
7 8 2
8 8 2
9 8 2
10 8 2
11 8 2
12 8 2
13 8 2
14 8 2
15 8 2
16 8 2
17 8 2
18 8 2
19 8 2
20 8 2
21 8 2
22 8 2
23 8 2
24 8 2
25 8 2
26 8 2
27 8 2
28 8 2
29 8 2
30 8 2
31 8 2
32 8 2
33 8 2
34 8 2
35 8 2
36 8 2
37 8 2
38 8 2
39 8 2
40 8 2
41 8 2
42 8 2
43 8 2
44 8 2
45 8 2
46 8 2
47 8 2
48 8 2
49 8 2
0 9 2
1 9 2
2 9 2
3 9 2
4 9 2
[...]
POINT_DATA 15000
SCALARS sol117 float
LOOKUP_TABLE default
55.9898
55.9868
55.9837
55.9807
55.9776
55.9746
55.9715
55.9685
55.9655
55.9624
55.9594
55.9563
55.9533
55.9502
55.9472
55.9441
55.9411
55.9381
55.935
55.932
55.9289
55.9259
55.9229
55.9198
55.9168
55.9137
55.9107
55.9077
55.9046
55.9016
55.8985
55.8955
55.8925
55.8894
55.8864
55.8834
55.8803
55.8773
55.8743
55.8712
55.8682
55.8652
55.8621
55.8591
55.8561
55.853
55.85
55.847
55.8439
55.8409
55.8379
55.8349
55.8318
55.8288
55.8258
55.8228
55.8197
55.8167
55.8137
55.8106
55.8076
55.8046
55.8016
55.7986
55.7955
55.7925
55.7895
55.7865
55.7834
55.7804
55.7774
55.7744
55.7714
55.7683
55.7653
55.7623
55.7593
55.7563
55.7532
55.7502
55.7472
55.7442
55.7412
55.7382
55.7351
55.7321
55.7291
55.7261
55.7231
55.7201
55.7171
55.7141
55.711
55.708
55.705
55.702
55.699
55.696
55.693
55.69
55.687
55.6839
55.6809
55.6779
55.6749
55.6719
55.6689
55.6659
55.6629
55.6599
55.6569
55.6539
55.6509
55.6479
55.6449
55.6419
55.6389
55.6359
55.6329
55.6299
55.6269
55.6239
55.6209
55.6179
55.6149
55.6119
55.6089
55.6059
55.6029
55.5999
55.5969
55.5939
55.5909
55.5879
55.5849
55.5819
55.5789
55.5759
55.5729
55.5699
55.5669
55.5639
55.5609
55.558
55.555
55.552
55.549
55.546
55.543
55.54
55.537
55.534
55.5311
55.5281
55.5251
55.5221
55.5191
55.5161
55.5131
55.5101
55.5072
55.5042
55.5012
55.4982
55.4952
55.4922
55.4893
55.4863
55.4833
55.4803
55.4773
55.4744
55.4714
55.4684
55.4654
55.4624
55.4595
55.4565
55.4535
55.4505
55.4476
55.4446
55.4416
55.4386
55.4356
55.4327
55.4297
55.4267
55.4238
55.4208
55.4178
55.4148
55.4119
55.4089
55.4059
55.4029
55.4
55.397
55.394
55.3911
55.3881
55.3851
55.3822
55.3792
55.3762
55.3733
55.3703
55.3673
55.3644
55.3614
55.3584
55.3555
55.3525
55.3495
55.3466
55.3436
55.3407
55.3377
55.3347
55.3318
55.3288
55.3258
55.3229
55.3199
55.317
55.314
55.3111
55.3081
55.3051
55.3022
55.2992
55.2963
55.2933
55.2904
55.2874
55.2844
55.2815
55.2785
55.2756
55.2726
55.2697
55.2667
55.2638
55.2608
55.2579
55.2549
55.252
55.249
55.2461
55.2431
55.2402
55.2372
55.2343
55.2313
55.2284
55.2254
55.2225
55.2195
55.2166
55.2136
55.2107
55.2078
55.2048
55.2019
55.1989
55.196
55.193
55.1901
55.1872
55.1842
55.1813
55.1783
55.1754
55.1725
55.1695
55.1666
55.1636
55.1607
55.1578
55.1548
55.1519
55.1489
55.146
55.1431
55.1401
55.1372
55.1343
55.1313
55.1284
55.1255
55.1225
55.1196
55.1167
55.1137
55.1108
55.1079
55.1049
55.102
55.0991
55.0962
55.0932
55.0903
55.0874
55.0844
55.0815
55.0786
55.0757
55.0727
55.0698
55.0669
55.064
55.061
55.0581
55.0552
55.0523
55.0493
55.0464
55.0435
55.0406
55.0377
55.0347
55.0318
55.0289
55.026
55.0231
55.0201
55.0172
55.0143
55.0114
55.0085
55.0055
55.0026
54.9997
54.9968
54.9939
54.991
54.988
54.9851
54.9822
54.9793
54.9764
54.9735
54.9706
54.9677
54.9647
54.9618
54.9589
54.956
54.9531
54.9502
54.9473
54.9444
54.9415
54.9386
54.9356
54.9327
54.9298
54.9269
54.924
54.9211
54.9182
54.9153
54.9124
54.9095
54.9066
54.9037
54.9008
54.8979
54.895
54.8921
54.8892
54.8863
54.8834
54.8805
54.8776
54.8747
54.8718
54.8689
54.866
54.8631
54.8602
54.8573
54.8544
54.8515
54.8486
54.8457
54.8428
54.8399
54.837
54.8341
54.8312
54.8283
54.8254
54.8226
54.8197
54.8168
54.8139
54.811
54.8081
54.8052
54.8023
54.7994
54.7965
54.7937
54.7908
54.7879
54.785
54.7821
54.7792
54.7763
54.7734
54.7706
54.7677
54.7648
54.7619
54.759
54.7561
54.7533
54.7504
54.7475
54.7446
54.7417
54.7388
54.736
54.7331
54.7302
54.7273
54.7244
54.7216
54.7187
54.7158
54.7129
54.7101
54.7072
54.7043
54.7014
54.6986
54.6957
54.6928
54.6899
54.6871
54.6842
54.6813
54.6784
54.6756
54.6727
54.6698
54.6669
54.6641
54.6612
54.6583
54.6555
54.6526
54.6497
54.6469
54.644
54.6411
54.6383
54.6354
54.6325
54.6297
54.6268
54.6239
54.6211
54.6182
54.6153
54.6125
54.6096
54.6067
54.6039
54.601
54.5982
54.5953
54.5924
54.5896
54.5867
54.5839
54.581
54.5781
54.5753
54.5724
54.5696
54.5667
54.5638
54.561
54.5581
54.5553
54.5524
54.5496
54.5467
54.5439
54.541
54.5381
54.5353
54.5324
54.5296
54.5267
54.5239
54.521
54.5182
54.5153
54.5125
54.5096
54.5068
54.5039
54.5011
54.4982
54.4954
54.4925
54.4897
54.4868
54.484
54.4812
54.4783
54.4755
54.4726
54.4698
54.4669
54.4641
54.4612
54.4584
54.4556
54.4527
54.4499
54.447
54.4442
54.4414
54.4385
54.4357
54.4328
54.43
54.4272
54.4243
54.4215
54.4186
54.4158
54.413
54.4101
54.4073
54.4045
54.4016
54.3988
54.396
54.3931
54.3903
54.3875
54.3846
54.3818
54.379
54.3761
54.3733
54.3705
54.3676
54.3648
54.362
54.3592
54.3563
54.3535
54.3507
54.3478
54.345
54.3422
54.3394
54.3365
54.3337
54.3309
54.3281
54.3252
54.3224
54.3196
54.3168
54.3139
54.3111
54.3083
54.3055
54.3027
54.2998
54.297
54.2942
54.2914
54.2886
54.2857
54.2829
54.2801
54.2773
54.2745
54.2716
54.2688
54.266
54.2632
54.2604
54.2576
54.2547
54.2519
54.2491
54.2463
54.2435
54.2407
54.2379
54.2351
54.2322
54.2294
54.2266
54.2238
54.221
54.2182
54.2154
54.2126
54.2098
54.207
54.2041
54.2013
54.1985
54.1957
54.1929
54.1901
54.1873
54.1845
54.1817
54.1789
54.1761
54.1733
54.1705
54.1677
54.1649
54.1621
54.1593
54.1565
54.1537
54.1509
54.1481
54.1453
54.1425
54.1397
54.1369
54.1341
54.1313
54.1285
54.1257
54.1229
54.1201
54.1173
54.1145
54.1117
54.1089
54.1061
54.1033
54.1005
54.0977
54.0949
54.0922
54.0894
54.0866
54.0838
54.081
54.0782
54.0754
54.0726
54.0698
54.067
54.0642
54.0615
54.0587
54.0559
54.0531
54.0503
54.0475
54.0447
54.042
54.0392
54.0364
54.0336
54.0308
54.028
54.0252
54.0225
54.0197
54.0169
54.0141
54.0113
54.0086
54.0058
54.003
54.0002
53.9974
53.9947
53.9919
53.9891
53.9863
53.9835
53.9808
53.978
53.9752
53.9724
53.9697
53.9669
53.9641
53.9613
53.9586
53.9558
53.953
53.9502
53.9475
53.9447
53.9419
53.9392
53.9364
53.9336
53.9308
53.9281
53.9253
53.9225
53.9198
53.917
53.9142
53.9115
53.9087
53.9059
53.9032
53.9004
53.8976
53.8949
53.8921
53.8893
53.8866
53.8838
53.8811
53.8783
53.8755
53.8728
53.87
53.8672
53.8645
53.8617
53.859
53.8562
53.8534
53.8507
53.8479
53.8452
53.8424
53.8397
53.8369
53.8341
53.8314
53.8286
53.8259
53.8231
53.8204
53.8176
53.8149
53.8121
53.8093
53.8066
53.8038
53.8011
53.7983
53.7956
53.7928
53.7901
53.7873
53.7846
53.7818
53.7791
53.7763
53.7736
53.7708
53.7681
53.7653
53.7626
53.7598
53.7571
53.7544
53.7516
53.7489
53.7461
53.7434
53.7406
53.7379
53.7351
53.7324
53.7297
53.7269
53.7242
53.7214
53.7187
53.716
53.7132
53.7105
53.7077
53.705
53.7023
53.6995
53.6968
53.6941
53.6913
53.6886
53.6858
53.6831
53.6804
53.6776
53.6749
53.6722
53.6694
53.6667
53.664
53.6612
53.6585
53.6558
53.653
53.6503
53.6476
53.6448
53.6421
53.6394
53.6367
53.6339
53.6312
53.6285
53.6257
53.623
53.6203
53.6176
53.6148
53.6121
53.6094
53.6067
53.6039
53.6012
53.5985
53.5958
53.593
53.5903
53.5876
53.5849
53.5822
53.5794
53.5767
53.574
53.5713
53.5685
53.5658
53.5631
53.5604
53.5577
53.555
53.5522
53.5495
53.5468
53.5441
53.5414
53.5387
53.5359
53.5332
53.5305
53.5278
53.5251
53.5224
53.5197
53.5169
53.5142
53.5115
53.5088
53.5061
53.5034
53.5007
53.498
53.4953
53.4926
53.4898
53.4871
53.4844
53.4817
53.479
53.4763
53.4736
53.4709
53.4682
53.4655
53.4628
53.4601
53.4574
53.4547
53.452
53.4493
53.4466
53.4439
53.4411
53.4384
53.4357
53.433
53.4303
53.4276
53.4249
53.4222
53.4195
53.4168
53.4142
53.4115
53.4088
53.4061
53.4034
53.4007
53.398
53.3953
53.3926
53.3899
53.3872
53.3845
53.3818
53.3791
53.3764
53.3737
53.371
53.3683
53.3656
53.363
53.3603
53.3576
53.3549
53.3522
53.3495
53.3468
53.3441
53.3414
53.3388
53.3361
53.3334
53.3307
53.328
53.3253
53.3226
53.32
53.3173
53.3146
53.3119
53.3092
53.3065
53.3039
53.3012
53.2985
53.2958
53.2931
53.2904
53.2878
53.2851
53.2824
53.2797
53.277
53.2744
53.2717
53.269
53.2663
53.2637
53.261
53.2583
53.2556
53.253
53.2503
53.2476
53.2449
53.2423
53.2396
53.2369
53.2342
53.2316
53.2289
53.2262
53.2235
53.2209
53.2182
53.2155
53.2129
53.2102
53.2075
53.2049
53.2022
53.1995
53.1969
53.1942
53.1915
53.1889
53.1862
53.1835
53.1809
53.1782
53.1755
53.1729
53.1702
53.1675
53.1649
53.1622
53.1595
53.1569
53.1542
53.1516
53.1489
53.1462
53.1436
53.1409
53.1383
53.1356
53.1329
53.1303
53.1276
53.125
53.1223
53.1197
53.117
53.1143
53.1117
53.109
53.1064
53.1037
53.1011
53.0984
53.0958
53.0931
53.0905
53.0878
53.0852
53.0825
53.0798
53.0772
53.0745
53.0719
53.0692
53.0666
53.064
53.0613
53.0587
53.056
53.0534
53.0507
53.0481
53.0454
53.0428
53.0401
53.0375
53.0348
53.0322
53.0295
53.0269
53.0243
53.0216
53.019
53.0163
53.0137
53.0111
53.0084
53.0058
53.0031
53.0005
52.9979
52.9952
52.9926
52.9899
52.9873
52.9847
52.982
52.9794
52.9767
52.9741
52.9715
52.9688
52.9662
52.9636
52.9609
52.9583
52.9557
52.953
52.9504
52.9478
52.9451
52.9425
52.9399
52.9372
52.9346
52.932
52.9294
52.9267
52.9241
52.9215
52.9188
52.9162
52.9136
52.911
52.9083
52.9057
52.9031
52.9005
52.8978
52.8952
52.8926
52.89
52.8873
52.8847
52.8821
52.8795
52.8768
52.8742
52.8716
52.869
52.8664
52.8637
52.8611
52.8585
52.8559
52.8533
52.8506
52.848
52.8454
52.8428
52.8402
52.8375
52.8349
52.8323
52.8297
52.8271
52.8245
52.8219
52.8192
52.8166
52.814
52.8114
52.8088
52.8062
52.8036
52.801
52.7983
52.7957
52.7931
52.7905
52.7879
52.7853
52.7827
52.7801
52.7775
52.7749
52.7722
52.7696
52.767
52.7644
52.7618
52.7592
52.7566
52.754
52.7514
52.7488
52.7462
52.7436
52.741
52.7384
52.7358
52.7332
52.7306
52.728
52.7254
52.7228
52.7202
52.7176
52.715
52.7124
52.7098
52.7072
52.7046
52.702
52.6994
52.6968
52.6942
52.6916
52.689
52.6864
52.6838
52.6812
52.6786
52.676
52.6734
52.6708
52.6683
52.6657
52.6631
52.6605
52.6579
52.6553
52.6527
52.6501
52.6475
52.6449
52.6423
52.6398
52.6372
52.6346
52.632
52.6294
52.6268
52.6242
52.6216
52.6191
52.6165
52.6139
52.6113
52.6087
52.6061
52.6036
52.601
52.5984
52.5958
52.5932
52.5906
52.5881
52.5855
52.5829
52.5803
52.5777
52.5752
52.5726
52.57
52.5674
52.5648
52.5623
52.5597
52.5571
52.5545
52.552
52.5494
52.5468
52.5442
52.5417
52.5391
52.5365
52.5339
52.5314
52.5288
52.5262
52.5237
52.5211
52.5185
52.5159
52.5134
52.5108
52.5082
52.5057
52.5031
52.5005
52.498
52.4954
52.4928
52.4903
52.4877
52.4851
52.4826
52.48
52.4774
52.4749
52.4723
52.4697
52.4672
52.4646
52.462
52.4595
52.4569
52.4544
52.4518
52.4492
52.4467
52.4441
52.4415
52.439
52.4364
52.4339
52.4313
52.4288
52.4262
52.4236
52.4211
52.4185
52.416
52.4134
52.4109
52.4083
52.4057
52.4032
52.4006
52.3981
52.3955
52.393
52.3904
52.3879
52.3853
52.3828
52.3802
52.3777
52.3751
52.3726
52.37
52.3675
52.3649
52.3624
52.3598
52.3573
52.3547
52.3522
52.3496
52.3471
52.3445
52.342
52.3394
52.3369
52.3344
52.3318
52.3293
52.3267
52.3242
52.3216
52.3191
52.3165
52.314
52.3115
52.3089
52.3064
52.3038
52.3013
52.2988
52.2962
52.2937
52.2911
52.2886
52.2861
52.2835
52.281
52.2785
52.2759
52.2734
52.2709
52.2683
52.2658
52.2632
52.2607
52.2582
52.2556
52.2531
52.2506
52.248
52.2455
52.243
52.2405
52.2379
52.2354
52.2329
52.2303
52.2278
52.2253
52.2227
52.2202
52.2177
52.2152
52.2126
52.2101
52.2076
52.2051
52.2025
52.2
52.1975
52.195
52.1924
52.1899
52.1874
52.1849
52.1823
52.1798
52.1773
52.1748
52.1722
52.1697
52.1672
52.1647
52.1622
52.1596
52.1571
52.1546
52.1521
52.1496
52.1471
52.1445
52.142
52.1395
52.137
52.1345
52.132
52.1294
52.1269
52.1244
52.1219
52.1194
52.1169
52.1144
52.1118
52.1093
52.1068
52.1043
52.1018
52.0993
52.0968
52.0943
52.0918
52.0892
52.0867
52.0842
52.0817
52.0792
52.0767
52.0742
52.0717
52.0692
52.0667
52.0642
52.0617
52.0592
52.0567
52.0542
52.0517
52.0491
52.0466
52.0441
52.0416
52.0391
52.0366
52.0341
52.0316
52.0291
52.0266
52.0241
52.0216
52.0191
52.0166
52.0141
52.0116
52.0091
52.0066
52.0041
52.0017
51.9992
51.9967
51.9942
51.9917
51.9892
51.9867
51.9842
51.9817
51.9792
51.9767
51.9742
51.9717
51.9692
51.9667
51.9642
51.9618
51.9593
51.9568
51.9543
51.9518
51.9493
51.9468
51.9443
51.9418
51.9394
51.9369
51.9344
51.9319
51.9294
51.9269
51.9244
51.922
51.9195
51.917
51.9145
51.912
51.9095
51.907
51.9046
51.9021
51.8996
51.8971
51.8946
51.8922
51.8897
51.8872
51.8847
51.8822
51.8798
51.8773
51.8748
51.8723
51.8699
51.8674
51.8649
51.8624
51.8599
51.8575
51.855
51.8525
51.85
51.8476
51.8451
51.8426
51.8402
51.8377
51.8352
51.8327
51.8303
51.8278
51.8253
51.8228
51.8204
51.8179
51.8154
51.813
51.8105
51.808
51.8056
51.8031
51.8006
51.7982
51.7957
51.7932
51.7908
51.7883
51.7858
51.7834
51.7809
51.7784
51.776
51.7735
51.7711
51.7686
51.7661
51.7637
51.7612
51.7587
51.7563
51.7538
51.7514
51.7489
51.7464
51.744
51.7415
51.7391
51.7366
51.7342
51.7317
51.7292
51.7268
51.7243
51.7219
51.7194
51.717
51.7145
51.712
51.7096
51.7071
51.7047
51.7022
51.6998
51.6973
51.6949
51.6924
51.69
51.6875
51.6851
51.6826
51.6802
51.6777
51.6753
51.6728
51.6704
51.6679
51.6655
51.663
51.6606
51.6581
51.6557
51.6533
51.6508
51.6484
51.6459
51.6435
51.641
51.6386
51.6361
51.6337
51.6313
51.6288
51.6264
51.6239
51.6215
51.6191
51.6166
51.6142
51.6117
51.6093
51.6069
51.6044
51.602
51.5995
51.5971
51.5947
51.5922
51.5898
51.5874
51.5849
51.5825
51.5801
51.5776
51.5752
51.5728
51.5703
51.5679
51.5655
51.563
51.5606
51.5582
51.5557
51.5533
51.5509
51.5484
51.546
51.5436
51.5411
51.5387
51.5363
51.5339
51.5314
51.529
51.5266
51.5241
51.5217
51.5193
51.5169
51.5144
51.512
51.5096
51.5072
51.5047
51.5023
51.4999
51.4975
51.4951
51.4926
51.4902
51.4878
51.4854
51.483
51.4805
51.4781
51.4757
51.4733
51.4709
51.4684
51.466
51.4636
51.4612
51.4588
51.4563
51.4539
51.4515
51.4491
51.4467
51.4443
51.4419
51.4394
51.437
51.4346
51.4322
51.4298
51.4274
51.425
51.4226
51.4201
51.4177
51.4153
51.4129
51.4105
51.4081
51.4057
51.4033
51.4009
51.3985
51.3961
51.3936
51.3912
51.3888
51.3864
51.384
51.3816
51.3792
51.3768
51.3744
51.372
51.3696
51.3672
51.3648
51.3624
51.36
51.3576
51.3552
51.3528
51.3504
51.348
51.3456
51.3432
51.3408
51.3384
51.336
51.3336
51.3312
51.3288
51.3264
51.324
51.3216
51.3192
51.3168
51.3144
51.312
51.3096
51.3072
51.3048
51.3024
51.3
51.2976
51.2953
51.2929
51.2905
51.2881
51.2857
51.2833
51.2809
51.2785
51.2761
51.2737
51.2713
51.269
51.2666
51.2642
51.2618
51.2594
51.257
51.2546
51.2522
51.2499
51.2475
51.2451
51.2427
51.2403
51.2379
51.2355
51.2332
51.2308
51.2284
51.226
51.2236
51.2213
51.2189
51.2165
51.2141
51.2117
51.2093
51.207
51.2046
51.2022
51.1998
51.1975
51.1951
51.1927
51.1903
51.1879
51.1856
51.1832
51.1808
51.1784
51.1761
51.1737
51.1713
51.1689
51.1666
51.1642
51.1618
51.1595
51.1571
51.1547
51.1523
51.15
51.1476
51.1452
51.1429
51.1405
51.1381
51.1357
51.1334
51.131
51.1286
51.1263
51.1239
51.1215
51.1192
51.1168
51.1144
51.1121
51.1097
51.1073
51.105
51.1026
51.1003
51.0979
51.0955
51.0932
51.0908
51.0884
51.0861
51.0837
51.0814
51.079
51.0766
51.0743
51.0719
51.0696
51.0672
51.0648
51.0625
51.0601
51.0578
51.0554
51.0531
51.0507
51.0483
51.046
51.0436
51.0413
51.0389
51.0366
51.0342
51.0319
51.0295
51.0272
51.0248
51.0225
51.0201
51.0178
51.0154
51.013
51.0107
51.0083
51.006
51.0037
51.0013
50.999
50.9966
50.9943
50.9919
50.9896
50.9872
50.9849
50.9825
50.9802
50.9778
50.9755
50.9731
50.9708
50.9685
50.9661
50.9638
50.9614
50.9591
50.9567
50.9544
50.9521
50.9497
50.9474
50.945
50.9427
50.9404
50.938
50.9357
50.9333
50.931
50.9287
50.9263
50.924
50.9217
50.9193
50.917
50.9146
50.9123
50.91
50.9076
50.9053
50.903
50.9006
50.8983
50.896
50.8936
50.8913
50.889
50.8866
50.8843
50.882
50.8797
50.8773
50.875
50.8727
50.8703
50.868
50.8657
50.8633
50.861
50.8587
50.8564
50.854
50.8517
50.8494
50.8471
50.8447
50.8424
50.8401
50.8378
50.8354
50.8331
50.8308
50.8285
50.8261
50.8238
50.8215
50.8192
50.8169
50.8145
50.8122
50.8099
50.8076
50.8053
50.8029
50.8006
50.7983
50.796
50.7937
50.7914
50.789
50.7867
50.7844
50.7821
50.7798
50.7775
50.7751
50.7728
50.7705
50.7682
50.7659
50.7636
50.7613
50.7589
50.7566
50.7543
50.752
50.7497
50.7474
50.7451
50.7428
50.7405
50.7382
50.7358
50.7335
50.7312
50.7289
50.7266
50.7243
50.722
50.7197
50.7174
50.7151
50.7128
50.7105
50.7082
50.7059
50.7036
50.7013
50.699
50.6966
50.6943
50.692
50.6897
50.6874
50.6851
50.6828
50.6805
50.6782
50.6759
50.6736
50.6713
50.669
50.6667
50.6644
50.6621
50.6599
50.6576
50.6553
50.653
50.6507
50.6484
50.6461
50.6438
50.6415
50.6392
50.6369
50.6346
50.6323
50.63
50.6277
50.6254
50.6231
50.6209
50.6186
50.6163
50.614
50.6117
50.6094
50.6071
50.6048
50.6025
50.6002
50.598
50.5957
50.5934
50.5911
50.5888
50.5865
50.5842
50.582
50.5797
50.5774
50.5751
50.5728
50.5705
50.5682
50.566
50.5637
50.5614
50.5591
50.5568
50.5546
50.5523
50.55
50.5477
50.5454
50.5432
50.5409
50.5386
50.5363
50.534
50.5318
50.5295
50.5272
50.5249
50.5227
50.5204
50.5181
50.5158
50.5136
50.5113
50.509
50.5067
50.5045
50.5022
50.4999
50.4976
50.4954
50.4931
50.4908
50.4886
50.4863
50.484
50.4817
50.4795
50.4772
50.4749
50.4727
50.4704
50.4681
50.4659
50.4636
50.4613
50.4591
50.4568
50.4545
50.4523
50.45
50.4477
50.4455
50.4432
50.4409
50.4387
50.4364
50.4342
50.4319
50.4296
50.4274
50.4251
50.4228
50.4206
50.4183
50.4161
50.4138
50.4115
50.4093
50.407
50.4048
50.4025
50.4003
50.398
50.3957
50.3935
50.3912
50.389
50.3867
50.3845
50.3822
50.3799
50.3777
50.3754
50.3732
50.3709
50.3687
50.3664
50.3642
50.3619
50.3597
50.3574
50.3552
50.3529
50.3507
50.3484
50.3462
50.3439
50.3417
50.3394
50.3372
50.3349
50.3327
50.3304
50.3282
50.3259
50.3237
50.3215
50.3192
50.317
50.3147
50.3125
50.3102
50.308
50.3057
50.3035
50.3013
50.299
50.2968
50.2945
50.2923
50.2901
50.2878
50.2856
50.2833
50.2811
50.2789
50.2766
50.2744
50.2721
50.2699
50.2677
50.2654
50.2632
50.261
50.2587
50.2565
50.2542
50.252
50.2498
50.2475
50.2453
50.2431
50.2408
50.2386
50.2364
50.2341
50.2319
50.2297
50.2275
50.2252
50.223
50.2208
50.2185
50.2163
50.2141
50.2118
50.2096
50.2074
50.2052
50.2029
50.2007
50.1985
50.1963
50.194
50.1918
50.1896
50.1874
50.1851
50.1829
50.1807
50.1785
50.1762
50.174
50.1718
50.1696
50.1673
50.1651
50.1629
50.1607
50.1585
50.1562
50.154
50.1518
50.1496
50.1474
50.1451
50.1429
50.1407
50.1385
50.1363
50.1341
50.1318
50.1296
50.1274
50.1252
50.123
50.1208
50.1186
50.1163
50.1141
50.1119
50.1097
50.1075
50.1053
50.1031
50.1009
50.0986
50.0964
50.0942
50.092
50.0898
50.0876
50.0854
50.0832
50.081
50.0788
50.0766
50.0743
50.0721
50.0699
50.0677
50.0655
50.0633
50.0611
50.0589
50.0567
50.0545
50.0523
50.0501
50.0479
50.0457
50.0435
50.0413
50.0391
50.0369
50.0347
50.0325
50.0303
50.0281
50.0259
50.0237
50.0215
50.0193
50.0171
50.0149
50.0127
50.0105
50.0083
50.0061
50.0039
50.0017
49.9995
49.9973
49.9951
49.9929
49.9907
49.9885
49.9863
49.9841
49.9819
49.9798
49.9776
49.9754
49.9732
49.971
49.9688
49.9666
49.9644
49.9622
49.96
49.9578
49.9557
49.9535
49.9513
49.9491
49.9469
49.9447
49.9425
49.9403
49.9382
49.936
49.9338
49.9316
49.9294
49.9272
49.9251
49.9229
49.9207
49.9185
49.9163
49.9141
49.912
49.9098
49.9076
49.9054
49.9032
49.9011
49.8989
49.8967
49.8945
49.8923
49.8902
49.888
49.8858
49.8836
49.8814
49.8793
49.8771
49.8749
49.8727
49.8706
49.8684
49.8662
49.864
49.8619
49.8597
49.8575
49.8553
49.8532
49.851
49.8488
49.8467
49.8445
49.8423
49.8401
49.838
49.8358
49.8336
49.8315
49.8293
49.8271
49.825
49.8228
49.8206
49.8185
49.8163
49.8141
49.812
49.8098
49.8076
49.8055
49.8033
49.8011
49.799
49.7968
49.7946
49.7925
49.7903
49.7881
49.786
49.7838
49.7817
49.7795
49.7773
49.7752
49.773
49.7709
49.7687
49.7665
49.7644
49.7622
49.7601
49.7579
49.7557
49.7536
49.7514
49.7493
49.7471
49.745
49.7428
49.7407
49.7385
49.7363
49.7342
49.732
49.7299
49.7277
49.7256
49.7234
49.7213
49.7191
49.717
49.7148
49.7127
49.7105
49.7084
49.7062
49.7041
49.7019
49.6998
49.6976
49.6955
49.6933
49.6912
49.689
49.6869
49.6847
49.6826
49.6805
49.6783
49.6762
49.674
49.6719
49.6697
49.6676
49.6654
49.6633
49.6612
49.659
49.6569
49.6547
49.6526
49.6504
49.6483
49.6462
49.644
49.6419
49.6397
49.6376
49.6355
49.6333
49.6312
49.6291
49.6269
49.6248
49.6226
49.6205
49.6184
49.6162
49.6141
49.612
49.6098
49.6077
49.6056
49.6034
49.6013
49.5992
49.597
49.5949
49.5928
49.5906
49.5885
49.5864
49.5842
49.5821
49.58
49.5779
49.5757
49.5736
49.5715
49.5693
49.5672
49.5651
49.563
49.5608
49.5587
49.5566
49.5545
49.5523
49.5502
49.5481
49.546
49.5438
49.5417
49.5396
49.5375
49.5353
49.5332
49.5311
49.529
49.5269
49.5247
49.5226
49.5205
49.5184
49.5163
49.5141
49.512
49.5099
49.5078
49.5057
49.5035
49.5014
49.4993