# vtk DataFile Version 2.0
vtk output
ASCII
DATASET STRUCTURED_GRID
DIMENSIONS 50 10 30
POINTS 15000 float
0 0 0
1 0 0
2 0 0
3 0 0
4 0 0
5 0 0
6 0 0
7 0 0
8 0 0
9 0 0
10 0 0
11 0 0
12 0 0
13 0 0
14 0 0
15 0 0
16 0 0
17 0 0
18 0 0
19 0 0
20 0 0
21 0 0
22 0 0
23 0 0
24 0 0
25 0 0
26 0 0
27 0 0
28 0 0
29 0 0
30 0 0
31 0 0
32 0 0
33 0 0
34 0 0
35 0 0
36 0 0
37 0 0
38 0 0
39 0 0
40 0 0
41 0 0
42 0 0
43 0 0
44 0 0
45 0 0
46 0 0
47 0 0
48 0 0
49 0 0
0 1 0
1 1 0
2 1 0
3 1 0
4 1 0
5 1 0
6 1 0
7 1 0
8 1 0
9 1 0
10 1 0
11 1 0
12 1 0
13 1 0
14 1 0
15 1 0
16 1 0
17 1 0
18 1 0
19 1 0
20 1 0
21 1 0
22 1 0
23 1 0
24 1 0
25 1 0
26 1 0
27 1 0
28 1 0
29 1 0
30 1 0
31 1 0
32 1 0
33 1 0
34 1 0
35 1 0
36 1 0
37 1 0
38 1 0
39 1 0
40 1 0
41 1 0
42 1 0
43 1 0
44 1 0
45 1 0
46 1 0
47 1 0
48 1 0
49 1 0
0 2 0
1 2 0
2 2 0
3 2 0
4 2 0
5 2 0
6 2 0
7 2 0
8 2 0
9 2 0
10 2 0
11 2 0
12 2 0
13 2 0
14 2 0
15 2 0
16 2 0
17 2 0
18 2 0
19 2 0
20 2 0
21 2 0
22 2 0
23 2 0
24 2 0
25 2 0
26 2 0
27 2 0
28 2 0
29 2 0
30 2 0
31 2 0
32 2 0
33 2 0
34 2 0
35 2 0
36 2 0
37 2 0
38 2 0
39 2 0
40 2 0
41 2 0
42 2 0
43 2 0
44 2 0
45 2 0
46 2 0
47 2 0
48 2 0
49 2 0
0 3 0
1 3 0
2 3 0
3 3 0
4 3 0
5 3 0
6 3 0
7 3 0
8 3 0
9 3 0
10 3 0
11 3 0
12 3 0
13 3 0
14 3 0
15 3 0
16 3 0
17 3 0
18 3 0
19 3 0
20 3 0
21 3 0
22 3 0
23 3 0
24 3 0
25 3 0
26 3 0
27 3 0
28 3 0
29 3 0
30 3 0
31 3 0
32 3 0
33 3 0
34 3 0
35 3 0
36 3 0
37 3 0
38 3 0
39 3 0
40 3 0
41 3 0
42 3 0
43 3 0
44 3 0
45 3 0
46 3 0
47 3 0
48 3 0
49 3 0
0 4 0
1 4 0
2 4 0
3 4 0
4 4 0
5 4 0
6 4 0
7 4 0
8 4 0
9 4 0
10 4 0
11 4 0
12 4 0
13 4 0
14 4 0
15 4 0
16 4 0
17 4 0
18 4 0
19 4 0
20 4 0
21 4 0
22 4 0
23 4 0
24 4 0
25 4 0
26 4 0
27 4 0
28 4 0
29 4 0
30 4 0
31 4 0
32 4 0
33 4 0
34 4 0
35 4 0
36 4 0
37 4 0
38 4 0
39 4 0
40 4 0
41 4 0
42 4 0
43 4 0
44 4 0
45 4 0
46 4 0
47 4 0
48 4 0
49 4 0
0 5 0
1 5 0
2 5 0
3 5 0
4 5 0
5 5 0
6 5 0
7 5 0
8 5 0
9 5 0
10 5 0
11 5 0
12 5 0
13 5 0
14 5 0
15 5 0
16 5 0
17 5 0
18 5 0
19 5 0
20 5 0
21 5 0
22 5 0
23 5 0
24 5 0
25 5 0
26 5 0
27 5 0
28 5 0
29 5 0
30 5 0
31 5 0
32 5 0
33 5 0
34 5 0
35 5 0
36 5 0
37 5 0
38 5 0
39 5 0
40 5 0
41 5 0
42 5 0
43 5 0
44 5 0
45 5 0
46 5 0
47 5 0
48 5 0
49 5 0
0 6 0
1 6 0
2 6 0
3 6 0
4 6 0
5 6 0
6 6 0
7 6 0
8 6 0
9 6 0
10 6 0
11 6 0
12 6 0
13 6 0
14 6 0
15 6 0
16 6 0
17 6 0
18 6 0
19 6 0
20 6 0
21 6 0
22 6 0
23 6 0
24 6 0
25 6 0
26 6 0
27 6 0
28 6 0
29 6 0
30 6 0
31 6 0
32 6 0
33 6 0
34 6 0
35 6 0
36 6 0
37 6 0
38 6 0
39 6 0
40 6 0
41 6 0
42 6 0
43 6 0
44 6 0
45 6 0
46 6 0
47 6 0
48 6 0
49 6 0
0 7 0
1 7 0
2 7 0
3 7 0
4 7 0
5 7 0
6 7 0
7 7 0
8 7 0
9 7 0
10 7 0
11 7 0
12 7 0
13 7 0
14 7 0
15 7 0
16 7 0
17 7 0
18 7 0
19 7 0
20 7 0
21 7 0
22 7 0
23 7 0
24 7 0
25 7 0
26 7 0
27 7 0
28 7 0
29 7 0
30 7 0
31 7 0
32 7 0
33 7 0
34 7 0
35 7 0
36 7 0
37 7 0
38 7 0
39 7 0
40 7 0
41 7 0
42 7 0
43 7 0
44 7 0
45 7 0
46 7 0
47 7 0
48 7 0
49 7 0
0 8 0
1 8 0
2 8 0
3 8 0
4 8 0
5 8 0
6 8 0
7 8 0
8 8 0
9 8 0
10 8 0
11 8 0
12 8 0
13 8 0
14 8 0
15 8 0
16 8 0
17 8 0
18 8 0
19 8 0
20 8 0
21 8 0
22 8 0
23 8 0
24 8 0
25 8 0
26 8 0
27 8 0
28 8 0
29 8 0
30 8 0
31 8 0
32 8 0
33 8 0
34 8 0
35 8 0
36 8 0
37 8 0
38 8 0
39 8 0
40 8 0
41 8 0
42 8 0
43 8 0
44 8 0
45 8 0
46 8 0
47 8 0
48 8 0
49 8 0
0 9 0
1 9 0
2 9 0
3 9 0
4 9 0
5 9 0
6 9 0
7 9 0
8 9 0
9 9 0
10 9 0
11 9 0
12 9 0
13 9 0
14 9 0
15 9 0
16 9 0
17 9 0
18 9 0
19 9 0
20 9 0
21 9 0
22 9 0
23 9 0
24 9 0
25 9 0
26 9 0
27 9 0
28 9 0
29 9 0
30 9 0
31 9 0
32 9 0
33 9 0
34 9 0
35 9 0
36 9 0
37 9 0
38 9 0
39 9 0
40 9 0
41 9 0
42 9 0
43 9 0
44 9 0
45 9 0
46 9 0
47 9 0
48 9 0
49 9 0
0 0 1
1 0 1
2 0 1
3 0 1
4 0 1
5 0 1
6 0 1
7 0 1
8 0 1
9 0 1
10 0 1
11 0 1
12 0 1
13 0 1
14 0 1
15 0 1
16 0 1
17 0 1
18 0 1
19 0 1
20 0 1
21 0 1
22 0 1
23 0 1
24 0 1
25 0 1
26 0 1
27 0 1
28 0 1
29 0 1
30 0 1
31 0 1
32 0 1
33 0 1
34 0 1
35 0 1
36 0 1
37 0 1
38 0 1
39 0 1
40 0 1
41 0 1
42 0 1
43 0 1
44 0 1
45 0 1
46 0 1
47 0 1
48 0 1
49 0 1
0 1 1
1 1 1
2 1 1
3 1 1
4 1 1
5 1 1
6 1 1
7 1 1
8 1 1
9 1 1
10 1 1
11 1 1
12 1 1
13 1 1
14 1 1
15 1 1
16 1 1
17 1 1
18 1 1
19 1 1
20 1 1
21 1 1
22 1 1
23 1 1
24 1 1
25 1 1
26 1 1
27 1 1
28 1 1
29 1 1
30 1 1
31 1 1
32 1 1
33 1 1
34 1 1
35 1 1
36 1 1
37 1 1
38 1 1
39 1 1
40 1 1
41 1 1
42 1 1
43 1 1
44 1 1
45 1 1
46 1 1
47 1 1
48 1 1
49 1 1
0 2 1
1 2 1
2 2 1
3 2 1
4 2 1
5 2 1
6 2 1
7 2 1
8 2 1
9 2 1
10 2 1
11 2 1
12 2 1
13 2 1
14 2 1
15 2 1
16 2 1
17 2 1
18 2 1
19 2 1
20 2 1
21 2 1
22 2 1
23 2 1
24 2 1
25 2 1
26 2 1
27 2 1
28 2 1
29 2 1
30 2 1
31 2 1
32 2 1
33 2 1
34 2 1
35 2 1
36 2 1
37 2 1
38 2 1
39 2 1
40 2 1
41 2 1
42 2 1
43 2 1
44 2 1
45 2 1
46 2 1
47 2 1
48 2 1
49 2 1
0 3 1
1 3 1
2 3 1
3 3 1
4 3 1
5 3 1
6 3 1
7 3 1
8 3 1
9 3 1
10 3 1
11 3 1
12 3 1
13 3 1
14 3 1
15 3 1
16 3 1
17 3 1
18 3 1
19 3 1
20 3 1
21 3 1
22 3 1
23 3 1
24 3 1
25 3 1
26 3 1
27 3 1
28 3 1
29 3 1
30 3 1
31 3 1
32 3 1
33 3 1
34 3 1
35 3 1
36 3 1
37 3 1
38 3 1
39 3 1
40 3 1
41 3 1
42 3 1
43 3 1
44 3 1
45 3 1
46 3 1
47 3 1
48 3 1
49 3 1
0 4 1
1 4 1
2 4 1
3 4 1
4 4 1
5 4 1
6 4 1
7 4 1
8 4 1
9 4 1
10 4 1
11 4 1
12 4 1
13 4 1
14 4 1
15 4 1
16 4 1
17 4 1
18 4 1
19 4 1
20 4 1
21 4 1
22 4 1
23 4 1
24 4 1
25 4 1
26 4 1
27 4 1
28 4 1
29 4 1
30 4 1
31 4 1
32 4 1
33 4 1
34 4 1
35 4 1
36 4 1
37 4 1
38 4 1
39 4 1
40 4 1
41 4 1
42 4 1
43 4 1
44 4 1
45 4 1
46 4 1
47 4 1
48 4 1
49 4 1
0 5 1
1 5 1
2 5 1
3 5 1
4 5 1
5 5 1
6 5 1
7 5 1
8 5 1
9 5 1
10 5 1
11 5 1
12 5 1
13 5 1
14 5 1
15 5 1
16 5 1
17 5 1
18 5 1
19 5 1
20 5 1
21 5 1
22 5 1
23 5 1
24 5 1
25 5 1
26 5 1
27 5 1
28 5 1
29 5 1
30 5 1
31 5 1
32 5 1
33 5 1
34 5 1
35 5 1
36 5 1
37 5 1
38 5 1
39 5 1
40 5 1
41 5 1
42 5 1
43 5 1
44 5 1
45 5 1
46 5 1
47 5 1
48 5 1
49 5 1
0 6 1
1 6 1
2 6 1
3 6 1
4 6 1
5 6 1
6 6 1
7 6 1
8 6 1
9 6 1
10 6 1
11 6 1
12 6 1
13 6 1
14 6 1
15 6 1
16 6 1
17 6 1
18 6 1
19 6 1
20 6 1
21 6 1
22 6 1
23 6 1
24 6 1
25 6 1
26 6 1
27 6 1
28 6 1
29 6 1
30 6 1
31 6 1
32 6 1
33 6 1
34 6 1
35 6 1
36 6 1
37 6 1
38 6 1
39 6 1
40 6 1
41 6 1
42 6 1
43 6 1
44 6 1
45 6 1
46 6 1
47 6 1
48 6 1
49 6 1
0 7 1
1 7 1
2 7 1
3 7 1
4 7 1
5 7 1
6 7 1
7 7 1
8 7 1
9 7 1
10 7 1
11 7 1
12 7 1
13 7 1
14 7 1
15 7 1
16 7 1
17 7 1
18 7 1
19 7 1
20 7 1
21 7 1
22 7 1
23 7 1
24 7 1
25 7 1
26 7 1
27 7 1
28 7 1
29 7 1
30 7 1
31 7 1
32 7 1
33 7 1
34 7 1
35 7 1
36 7 1
37 7 1
38 7 1
39 7 1
40 7 1
41 7 1
42 7 1
43 7 1
44 7 1
45 7 1
46 7 1
47 7 1
48 7 1
49 7 1
0 8 1
1 8 1
2 8 1
3 8 1
4 8 1
5 8 1
6 8 1
7 8 1
8 8 1
9 8 1
10 8 1
11 8 1
12 8 1
13 8 1
14 8 1
15 8 1
16 8 1
17 8 1
18 8 1
19 8 1
20 8 1
21 8 1
22 8 1
23 8 1
24 8 1
25 8 1
26 8 1
27 8 1
28 8 1
29 8 1
30 8 1
31 8 1
32 8 1
33 8 1
34 8 1
35 8 1
36 8 1
37 8 1
38 8 1
39 8 1
40 8 1
41 8 1
42 8 1
43 8 1
44 8 1
45 8 1
46 8 1
47 8 1
48 8 1
49 8 1
0 9 1
1 9 1
2 9 1
3 9 1
4 9 1
5 9 1
6 9 1
7 9 1
8 9 1
9 9 1
10 9 1
11 9 1
12 9 1
13 9 1
14 9 1
15 9 1
16 9 1
17 9 1
18 9 1
19 9 1
20 9 1
21 9 1
22 9 1
23 9 1
24 9 1
25 9 1
26 9 1
27 9 1
28 9 1
29 9 1
30 9 1
31 9 1
32 9 1
33 9 1
34 9 1
35 9 1
36 9 1
37 9 1
38 9 1
39 9 1
40 9 1
41 9 1
42 9 1
43 9 1
44 9 1
45 9 1
46 9 1
47 9 1
48 9 1
49 9 1
0 0 2
1 0 2
2 0 2
3 0 2
4 0 2
5 0 2
6 0 2
7 0 2
8 0 2
9 0 2
10 0 2
11 0 2
12 0 2
13 0 2
14 0 2
15 0 2
16 0 2
17 0 2
18 0 2
19 0 2
20 0 2
21 0 2
22 0 2
23 0 2
24 0 2
25 0 2
26 0 2
27 0 2
28 0 2
29 0 2
30 0 2
31 0 2
32 0 2
33 0 2
34 0 2
35 0 2
36 0 2
37 0 2
38 0 2
39 0 2
40 0 2
41 0 2
42 0 2
43 0 2
44 0 2
45 0 2
46 0 2
47 0 2
48 0 2
49 0 2
0 1 2
1 1 2
2 1 2
3 1 2
4 1 2
5 1 2
6 1 2
7 1 2
8 1 2
9 1 2
10 1 2
11 1 2
12 1 2
13 1 2
14 1 2
15 1 2
16 1 2
17 1 2
18 1 2
19 1 2
20 1 2
21 1 2
22 1 2
23 1 2
24 1 2
25 1 2
26 1 2
27 1 2
28 1 2
29 1 2
30 1 2
31 1 2
32 1 2
33 1 2
34 1 2
35 1 2
36 1 2
37 1 2
38 1 2
39 1 2
40 1 2
41 1 2
42 1 2
43 1 2
44 1 2
45 1 2
46 1 2
47 1 2
48 1 2
49 1 2
0 2 2
1 2 2
2 2 2
3 2 2
4 2 2
5 2 2
6 2 2
7 2 2
8 2 2
9 2 2
10 2 2
11 2 2
12 2 2
13 2 2
14 2 2
15 2 2
16 2 2
17 2 2
18 2 2
19 2 2
20 2 2
21 2 2
22 2 2
23 2 2
24 2 2
25 2 2
26 2 2
27 2 2
28 2 2
29 2 2
30 2 2
31 2 2
32 2 2
33 2 2
34 2 2
35 2 2
36 2 2
37 2 2
38 2 2
39 2 2
40 2 2
41 2 2
42 2 2
43 2 2
44 2 2
45 2 2
46 2 2
47 2 2
48 2 2
49 2 2
0 3 2
1 3 2
2 3 2
3 3 2
4 3 2
5 3 2
6 3 2
7 3 2
8 3 2
9 3 2
10 3 2
11 3 2
12 3 2
13 3 2
14 3 2
15 3 2
16 3 2
17 3 2
18 3 2
19 3 2
20 3 2
21 3 2
22 3 2
23 3 2
24 3 2
25 3 2
26 3 2
27 3 2
28 3 2
29 3 2
30 3 2
31 3 2
32 3 2
33 3 2
34 3 2
35 3 2
36 3 2
37 3 2
38 3 2
39 3 2
40 3 2
41 3 2
42 3 2
43 3 2
44 3 2
45 3 2
46 3 2
47 3 2
48 3 2
49 3 2
0 4 2
1 4 2
2 4 2
3 4 2
4 4 2
5 4 2
6 4 2
7 4 2
8 4 2
9 4 2
10 4 2
11 4 2
12 4 2
13 4 2
14 4 2
15 4 2
16 4 2
17 4 2
18 4 2
19 4 2
20 4 2
21 4 2
22 4 2
23 4 2
24 4 2
25 4 2
26 4 2
27 4 2
28 4 2
29 4 2
30 4 2
31 4 2
32 4 2
33 4 2
34 4 2
35 4 2
36 4 2
37 4 2
38 4 2
39 4 2
40 4 2
41 4 2
42 4 2
43 4 2
44 4 2
45 4 2
46 4 2
47 4 2
48 4 2
49 4 2
0 5 2
1 5 2
2 5 2
3 5 2
4 5 2
5 5 2
6 5 2
7 5 2
8 5 2
9 5 2
10 5 2
11 5 2
12 5 2
13 5 2
14 5 2
15 5 2
16 5 2
17 5 2
18 5 2
19 5 2
20 5 2
21 5 2
22 5 2
23 5 2
24 5 2
25 5 2
26 5 2
27 5 2
28 5 2
29 5 2
30 5 2
31 5 2
32 5 2
33 5 2
34 5 2
35 5 2
36 5 2
37 5 2
38 5 2
39 5 2
40 5 2
41 5 2
42 5 2
43 5 2
44 5 2
45 5 2
46 5 2
47 5 2
48 5 2
49 5 2
0 6 2
1 6 2
2 6 2
3 6 2
4 6 2
5 6 2
6 6 2
7 6 2
8 6 2
9 6 2
10 6 2
11 6 2
12 6 2
13 6 2
14 6 2
15 6 2
16 6 2
17 6 2
18 6 2
19 6 2
20 6 2
21 6 2
22 6 2
23 6 2
24 6 2
25 6 2
26 6 2
27 6 2
28 6 2
29 6 2
30 6 2
31 6 2
32 6 2
33 6 2
34 6 2
35 6 2
36 6 2
37 6 2
38 6 2
39 6 2
40 6 2
41 6 2
42 6 2
43 6 2
44 6 2
45 6 2
46 6 2
47 6 2
48 6 2
49 6 2
0 7 2
1 7 2
2 7 2
3 7 2
4 7 2
5 7 2
6 7 2
7 7 2
8 7 2
9 7 2
10 7 2
11 7 2
12 7 2
13 7 2
14 7 2
15 7 2
16 7 2
17 7 2
18 7 2
19 7 2
20 7 2
21 7 2
22 7 2
23 7 2
24 7 2
25 7 2
26 7 2
27 7 2
28 7 2
29 7 2
30 7 2
31 7 2
32 7 2
33 7 2
34 7 2
35 7 2
36 7 2
37 7 2
38 7 2
39 7 2
40 7 2
41 7 2
42 7 2
43 7 2
44 7 2
45 7 2
46 7 2
47 7 2
48 7 2
49 7 2
0 8 2
1 8 2
2 8 2
3 8 2
4 8 2
5 8 2
6 8 2
7 8 2
8 8 2
9 8 2
10 8 2
11 8 2
12 8 2
13 8 2
14 8 2
15 8 2
16 8 2
17 8 2
18 8 2
19 8 2
20 8 2
21 8 2
22 8 2
23 8 2
24 8 2
25 8 2
26 8 2
27 8 2
28 8 2
29 8 2
30 8 2
31 8 2
32 8 2
33 8 2
34 8 2
35 8 2
36 8 2
37 8 2
38 8 2
39 8 2
40 8 2
41 8 2
42 8 2
43 8 2
44 8 2
45 8 2
46 8 2
47 8 2
48 8 2
49 8 2
0 9 2
1 9 2
2 9 2
3 9 2
4 9 2
[...]
POINT_DATA 15000
SCALARS sol346 float
LOOKUP_TABLE default
58.4345
58.4315
58.4284
58.4254
58.4223
58.4193
58.4162
58.4132
58.4101
58.4071
58.4041
58.401
58.398
58.3949
58.3919
58.3888
58.3858
58.3828
58.3797
58.3767
58.3736
58.3706
58.3675
58.3645
58.3615
58.3584
58.3554
58.3524
58.3493
58.3463
58.3432
58.3402
58.3372
58.3341
58.3311
58.3281
58.325
58.322
58.319
58.3159
58.3129
58.3099
58.3068
58.3038
58.3008
58.2977
58.2947
58.2917
58.2886
58.2856
58.2826
58.2796
58.2765
58.2735
58.2705
58.2674
58.2644
58.2614
58.2584
58.2553
58.2523
58.2493
58.2463
58.2432
58.2402
58.2372
58.2342
58.2312
58.2281
58.2251
58.2221
58.2191
58.216
58.213
58.21
58.207
58.204
58.201
58.1979
58.1949
58.1919
58.1889
58.1859
58.1829
58.1798
58.1768
58.1738
58.1708
58.1678
58.1648
58.1618
58.1587
58.1557
58.1527
58.1497
58.1467
58.1437
58.1407
58.1377
58.1347
58.1317
58.1286
58.1256
58.1226
58.1196
58.1166
58.1136
58.1106
58.1076
58.1046
58.1016
58.0986
58.0956
58.0926
58.0896
58.0866
58.0836
58.0806
58.0776
58.0746
58.0716
58.0686
58.0656
58.0626
58.0596
58.0566
58.0536
58.0506
58.0476
58.0446
58.0416
58.0386
58.0356
58.0326
58.0296
58.0266
58.0236
58.0206
58.0176
58.0146
58.0116
58.0086
58.0056
58.0027
57.9997
57.9967
57.9937
57.9907
57.9877
57.9847
57.9817
57.9787
57.9757
57.9728
57.9698
57.9668
57.9638
57.9608
57.9578
57.9548
57.9519
57.9489
57.9459
57.9429
57.9399
57.9369
57.934
57.931
57.928
57.925
57.922
57.919
57.9161
57.9131
57.9101
57.9071
57.9042
57.9012
57.8982
57.8952
57.8922
57.8893
57.8863
57.8833
57.8803
57.8774
57.8744
57.8714
57.8684
57.8655
57.8625
57.8595
57.8566
57.8536
57.8506
57.8476
57.8447
57.8417
57.8387
57.8358
57.8328
57.8298
57.8269
57.8239
57.8209
57.818
57.815
57.812
57.8091
57.8061
57.8031
57.8002
57.7972
57.7942
57.7913
57.7883
57.7853
57.7824
57.7794
57.7765
57.7735
57.7705
57.7676
57.7646
57.7617
57.7587
57.7557
57.7528
57.7498
57.7469
57.7439
57.741
57.738
57.735
57.7321
57.7291
57.7262
57.7232
57.7203
57.7173
57.7144
57.7114
57.7085
57.7055
57.7026
57.6996
57.6967
57.6937
57.6908
57.6878
57.6849
57.6819
57.679
57.676
57.6731
57.6701
57.6672
57.6642
57.6613
57.6583
57.6554
57.6524
57.6495
57.6466
57.6436
57.6407
57.6377
57.6348
57.6318
57.6289
57.626
57.623
57.6201
57.6171
57.6142
57.6113
57.6083
57.6054
57.6025
57.5995
57.5966
57.5936
57.5907
57.5878
57.5848
57.5819
57.579
57.576
57.5731
57.5702
57.5672
57.5643
57.5614
57.5584
57.5555
57.5526
57.5496
57.5467
57.5438
57.5409
57.5379
57.535
57.5321
57.5291
57.5262
57.5233
57.5204
57.5174
57.5145
57.5116
57.5087
57.5057
57.5028
57.4999
57.497
57.494
57.4911
57.4882
57.4853
57.4823
57.4794
57.4765
57.4736
57.4707
57.4677
57.4648
57.4619
57.459
57.4561
57.4532
57.4502
57.4473
57.4444
57.4415
57.4386
57.4357
57.4327
57.4298
57.4269
57.424
57.4211
57.4182
57.4153
57.4123
57.4094
57.4065
57.4036
57.4007
57.3978
57.3949
57.392
57.3891
57.3862
57.3832
57.3803
57.3774
57.3745
57.3716
57.3687
57.3658
57.3629
57.36
57.3571
57.3542
57.3513
57.3484
57.3455
57.3426
57.3397
57.3368
57.3339
57.331
57.3281
57.3252
57.3223
57.3194
57.3165
57.3136
57.3107
57.3078
57.3049
57.302
57.2991
57.2962
57.2933
57.2904
57.2875
57.2846
57.2817
57.2788
57.2759
57.273
57.2701
57.2672
57.2644
57.2615
57.2586
57.2557
57.2528
57.2499
57.247
57.2441
57.2412
57.2383
57.2355
57.2326
57.2297
57.2268
57.2239
57.221
57.2181
57.2153
57.2124
57.2095
57.2066
57.2037
57.2008
57.1979
57.1951
57.1922
57.1893
57.1864
57.1835
57.1807
57.1778
57.1749
57.172
57.1691
57.1663
57.1634
57.1605
57.1576
57.1548
57.1519
57.149
57.1461
57.1432
57.1404
57.1375
57.1346
57.1317
57.1289
57.126
57.1231
57.1203
57.1174
57.1145
57.1116
57.1088
57.1059
57.103
57.1002
57.0973
57.0944
57.0916
57.0887
57.0858
57.083
57.0801
57.0772
57.0744
57.0715
57.0686
57.0658
57.0629
57.06
57.0572
57.0543
57.0514
57.0486
57.0457
57.0428
57.04
57.0371
57.0343
57.0314
57.0285
57.0257
57.0228
57.02
57.0171
57.0143
57.0114
57.0085
57.0057
57.0028
57
56.9971
56.9943
56.9914
56.9885
56.9857
56.9828
56.98
56.9771
56.9743
56.9714
56.9686
56.9657
56.9629
56.96
56.9572
56.9543
56.9515
56.9486
56.9458
56.9429
56.9401
56.9372
56.9344
56.9315
56.9287
56.9258
56.923
56.9202
56.9173
56.9145
56.9116
56.9088
56.9059
56.9031
56.9003
56.8974
56.8946
56.8917
56.8889
56.886
56.8832
56.8804
56.8775
56.8747
56.8719
56.869
56.8662
56.8633
56.8605
56.8577
56.8548
56.852
56.8492
56.8463
56.8435
56.8407
56.8378
56.835
56.8322
56.8293
56.8265
56.8237
56.8208
56.818
56.8152
56.8123
56.8095
56.8067
56.8038
56.801
56.7982
56.7954
56.7925
56.7897
56.7869
56.7841
56.7812
56.7784
56.7756
56.7728
56.7699
56.7671
56.7643
56.7615
56.7586
56.7558
56.753
56.7502
56.7473
56.7445
56.7417
56.7389
56.7361
56.7332
56.7304
56.7276
56.7248
56.722
56.7192
56.7163
56.7135
56.7107
56.7079
56.7051
56.7023
56.6994
56.6966
56.6938
56.691
56.6882
56.6854
56.6826
56.6797
56.6769
56.6741
56.6713
56.6685
56.6657
56.6629
56.6601
56.6573
56.6545
56.6516
56.6488
56.646
56.6432
56.6404
56.6376
56.6348
56.632
56.6292
56.6264
56.6236
56.6208
56.618
56.6152
56.6124
56.6096
56.6068
56.604
56.6012
56.5984
56.5956
56.5928
56.59
56.5872
56.5844
56.5816
56.5788
56.576
56.5732
56.5704
56.5676
56.5648
56.562
56.5592
56.5564
56.5536
56.5508
56.548
56.5452
56.5424
56.5396
56.5368
56.5341
56.5313
56.5285
56.5257
56.5229
56.5201
56.5173
56.5145
56.5117
56.5089
56.5062
56.5034
56.5006
56.4978
56.495
56.4922
56.4894
56.4866
56.4839
56.4811
56.4783
56.4755
56.4727
56.4699
56.4672
56.4644
56.4616
56.4588
56.456
56.4533
56.4505
56.4477
56.4449
56.4421
56.4394
56.4366
56.4338
56.431
56.4282
56.4255
56.4227
56.4199
56.4171
56.4144
56.4116
56.4088
56.406
56.4033
56.4005
56.3977
56.3949
56.3922
56.3894
56.3866
56.3839
56.3811
56.3783
56.3755
56.3728
56.37
56.3672
56.3645
56.3617
56.3589
56.3562
56.3534
56.3506
56.3479
56.3451
56.3423
56.3396
56.3368
56.334
56.3313
56.3285
56.3257
56.323
56.3202
56.3175
56.3147
56.3119
56.3092
56.3064
56.3037
56.3009
56.2981
56.2954
56.2926
56.2899
56.2871
56.2843
56.2816
56.2788
56.2761
56.2733
56.2706
56.2678
56.2651
56.2623
56.2595
56.2568
56.254
56.2513
56.2485
56.2458
56.243
56.2403
56.2375
56.2348
56.232
56.2293
56.2265
56.2238
56.221
56.2183
56.2155
56.2128
56.21
56.2073
56.2045
56.2018
56.1991
56.1963
56.1936
56.1908
56.1881
56.1853
56.1826
56.1798
56.1771
56.1744
56.1716
56.1689
56.1661
56.1634
56.1607
56.1579
56.1552
56.1524
56.1497
56.147
56.1442
56.1415
56.1387
56.136
56.1333
56.1305
56.1278
56.1251
56.1223
56.1196
56.1169
56.1141
56.1114
56.1087
56.1059
56.1032
56.1005
56.0977
56.095
56.0923
56.0895
56.0868
56.0841
56.0814
56.0786
56.0759
56.0732
56.0704
56.0677
56.065
56.0623
56.0595
56.0568
56.0541
56.0514
56.0486
56.0459
56.0432
56.0405
56.0377
56.035
56.0323
56.0296
56.0268
56.0241
56.0214
56.0187
56.016
56.0132
56.0105
56.0078
56.0051
56.0024
55.9997
55.9969
55.9942
55.9915
55.9888
55.9861
55.9834
55.9806
55.9779
55.9752
55.9725
55.9698
55.9671
55.9644
55.9616
55.9589
55.9562
55.9535
55.9508
55.9481
55.9454
55.9427
55.94
55.9372
55.9345
55.9318
55.9291
55.9264
55.9237
55.921
55.9183
55.9156
55.9129
55.9102
55.9075
55.9048
55.9021
55.8994
55.8967
55.8939
55.8912
55.8885
55.8858
55.8831
55.8804
55.8777
55.875
55.8723
55.8696
55.8669
55.8642
55.8615
55.8588
55.8561
55.8534
55.8508
55.8481
55.8454
55.8427
55.84
55.8373
55.8346
55.8319
55.8292
55.8265
55.8238
55.8211
55.8184
55.8157
55.813
55.8103
55.8077
55.805
55.8023
55.7996
55.7969
55.7942
55.7915
55.7888
55.7861
55.7834
55.7808
55.7781
55.7754
55.7727
55.77
55.7673
55.7646
55.762
55.7593
55.7566
55.7539
55.7512
55.7485
55.7459
55.7432
55.7405
55.7378
55.7351
55.7325
55.7298
55.7271
55.7244
55.7217
55.7191
55.7164
55.7137
55.711
55.7084
55.7057
55.703
55.7003
55.6976
55.695
55.6923
55.6896
55.6869
55.6843
55.6816
55.6789
55.6763
55.6736
55.6709
55.6682
55.6656
55.6629
55.6602
55.6576
55.6549
55.6522
55.6496
55.6469
55.6442
55.6415
55.6389
55.6362
55.6335
55.6309
55.6282
55.6255
55.6229
55.6202
55.6176
55.6149
55.6122
55.6096
55.6069
55.6042
55.6016
55.5989
55.5963
55.5936
55.5909
55.5883
55.5856
55.583
55.5803
55.5776
55.575
55.5723
55.5697
55.567
55.5644
55.5617
55.559
55.5564
55.5537
55.5511
55.5484
55.5458
55.5431
55.5405
55.5378
55.5352
55.5325
55.5298
55.5272
55.5245
55.5219
55.5192
55.5166
55.5139
55.5113
55.5086
55.506
55.5033
55.5007
55.4981
55.4954
55.4928
55.4901
55.4875
55.4848
55.4822
55.4795
55.4769
55.4742
55.4716
55.469
55.4663
55.4637
55.461
55.4584
55.4557
55.4531
55.4505
55.4478
55.4452
55.4425
55.4399
55.4373
55.4346
55.432
55.4294
55.4267
55.4241
55.4214
55.4188
55.4162
55.4135
55.4109
55.4083
55.4056
55.403
55.4004
55.3977
55.3951
55.3925
55.3898
55.3872
55.3846
55.3819
55.3793
55.3767
55.374
55.3714
55.3688
55.3662
55.3635
55.3609
55.3583
55.3557
55.353
55.3504
55.3478
55.3451
55.3425
55.3399
55.3373
55.3346
55.332
55.3294
55.3268
55.3242
55.3215
55.3189
55.3163
55.3137
55.311
55.3084
55.3058
55.3032
55.3006
55.2979
55.2953
55.2927
55.2901
55.2875
55.2849
55.2822
55.2796
55.277
55.2744
55.2718
55.2692
55.2665
55.2639
55.2613
55.2587
55.2561
55.2535
55.2509
55.2483
55.2456
55.243
55.2404
55.2378
55.2352
55.2326
55.23
55.2274
55.2248
55.2222
55.2195
55.2169
55.2143
55.2117
55.2091
55.2065
55.2039
55.2013
55.1987
55.1961
55.1935
55.1909
55.1883
55.1857
55.1831
55.1805
55.1779
55.1753
55.1727
55.1701
55.1675
55.1649
55.1623
55.1597
55.1571
55.1545
55.1519
55.1493
55.1467
55.1441
55.1415
55.1389
55.1363
55.1337
55.1311
55.1285
55.1259
55.1233
55.1207
55.1181
55.1155
55.1129
55.1104
55.1078
55.1052
55.1026
55.1
55.0974
55.0948
55.0922
55.0896
55.087
55.0845
55.0819
55.0793
55.0767
55.0741
55.0715
55.0689
55.0663
55.0638
55.0612
55.0586
55.056
55.0534
55.0508
55.0483
55.0457
55.0431
55.0405
55.0379
55.0353
55.0328
55.0302
55.0276
55.025
55.0224
55.0199
55.0173
55.0147
55.0121
55.0095
55.007
55.0044
55.0018
54.9992
54.9967
54.9941
54.9915
54.9889
54.9864
54.9838
54.9812
54.9786
54.9761
54.9735
54.9709
54.9683
54.9658
54.9632
54.9606
54.9581
54.9555
54.9529
54.9504
54.9478
54.9452
54.9426
54.9401
54.9375
54.9349
54.9324
54.9298
54.9272
54.9247
54.9221
54.9196
54.917
54.9144
54.9119
54.9093
54.9067
54.9042
54.9016
54.899
54.8965
54.8939
54.8914
54.8888
54.8862
54.8837
54.8811
54.8786
54.876
54.8734
54.8709
54.8683
54.8658
54.8632
54.8607
54.8581
54.8555
54.853
54.8504
54.8479
54.8453
54.8428
54.8402
54.8377
54.8351
54.8326
54.83
54.8275
54.8249
54.8224
54.8198
54.8173
54.8147
54.8122
54.8096
54.8071
54.8045
54.802
54.7994
54.7969
54.7943
54.7918
54.7892
54.7867
54.7841
54.7816
54.779
54.7765
54.774
54.7714
54.7689
54.7663
54.7638
54.7612
54.7587
54.7562
54.7536
54.7511
54.7485
54.746
54.7435
54.7409
54.7384
54.7358
54.7333
54.7308
54.7282
54.7257
54.7232
54.7206
54.7181
54.7155
54.713
54.7105
54.7079
54.7054
54.7029
54.7003
54.6978
54.6953
54.6927
54.6902
54.6877
54.6851
54.6826
54.6801
54.6776
54.675
54.6725
54.67
54.6674
54.6649
54.6624
54.6599
54.6573
54.6548
54.6523
54.6497
54.6472
54.6447
54.6422
54.6396
54.6371
54.6346
54.6321
54.6296
54.627
54.6245
54.622
54.6195
54.6169
54.6144
54.6119
54.6094
54.6069
54.6043
54.6018
54.5993
54.5968
54.5943
54.5917
54.5892
54.5867
54.5842
54.5817
54.5792
54.5766
54.5741
54.5716
54.5691
54.5666
54.5641
54.5616
54.5591
54.5565
54.554
54.5515
54.549
54.5465
54.544
54.5415
54.539
54.5365
54.5339
54.5314
54.5289
54.5264
54.5239
54.5214
54.5189
54.5164
54.5139
54.5114
54.5089
54.5064
54.5039
54.5014
54.4988
54.4963
54.4938
54.4913
54.4888
54.4863
54.4838
54.4813
54.4788
54.4763
54.4738
54.4713
54.4688
54.4663
54.4638
54.4613
54.4588
54.4563
54.4538
54.4513
54.4488
54.4463
54.4438
54.4414
54.4389
54.4364
54.4339
54.4314
54.4289
54.4264
54.4239
54.4214
54.4189
54.4164
54.4139
54.4114
54.4089
54.4064
54.404
54.4015
54.399
54.3965
54.394
54.3915
54.389
54.3865
54.384
54.3816
54.3791
54.3766
54.3741
54.3716
54.3691
54.3666
54.3642
54.3617
54.3592
54.3567
54.3542
54.3517
54.3493
54.3468
54.3443
54.3418
54.3393
54.3369
54.3344
54.3319
54.3294
54.3269
54.3245
54.322
54.3195
54.317
54.3145
54.3121
54.3096
54.3071
54.3046
54.3022
54.2997
54.2972
54.2947
54.2923
54.2898
54.2873
54.2848
54.2824
54.2799
54.2774
54.275
54.2725
54.27
54.2675
54.2651
54.2626
54.2601
54.2577
54.2552
54.2527
54.2503
54.2478
54.2453
54.2429
54.2404
54.2379
54.2355
54.233
54.2305
54.2281
54.2256
54.2231
54.2207
54.2182
54.2157
54.2133
54.2108
54.2084
54.2059
54.2034
54.201
54.1985
54.1961
54.1936
54.1911
54.1887
54.1862
54.1838
54.1813
54.1788
54.1764
54.1739
54.1715
54.169
54.1666
54.1641
54.1617
54.1592
54.1567
54.1543
54.1518
54.1494
54.1469
54.1445
54.142
54.1396
54.1371
54.1347
54.1322
54.1298
54.1273
54.1249
54.1224
54.12
54.1175
54.1151
54.1126
54.1102
54.1077
54.1053
54.1028
54.1004
54.0979
54.0955
54.0931
54.0906
54.0882
54.0857
54.0833
54.0808
54.0784
54.076
54.0735
54.0711
54.0686
54.0662
54.0637
54.0613
54.0589
54.0564
54.054
54.0516
54.0491
54.0467
54.0442
54.0418
54.0394
54.0369
54.0345
54.0321
54.0296
54.0272
54.0247
54.0223
54.0199
54.0174
54.015
54.0126
54.0101
54.0077
54.0053
54.0028
54.0004
53.998
53.9956
53.9931
53.9907
53.9883
53.9858
53.9834
53.981
53.9786
53.9761
53.9737
53.9713
53.9688
53.9664
53.964
53.9616
53.9591
53.9567
53.9543
53.9519
53.9494
53.947
53.9446
53.9422
53.9398
53.9373
53.9349
53.9325
53.9301
53.9276
53.9252
53.9228
53.9204
53.918
53.9155
53.9131
53.9107
53.9083
53.9059
53.9035
53.901
53.8986
53.8962
53.8938
53.8914
53.889
53.8866
53.8841
53.8817
53.8793
53.8769
53.8745
53.8721
53.8697
53.8672
53.8648
53.8624
53.86
53.8576
53.8552
53.8528
53.8504
53.848
53.8456
53.8432
53.8407
53.8383
53.8359
53.8335
53.8311
53.8287
53.8263
53.8239
53.8215
53.8191
53.8167
53.8143
53.8119
53.8095
53.8071
53.8047
53.8023
53.7999
53.7975
53.7951
53.7927
53.7903
53.7879
53.7855
53.7831
53.7807
53.7783
53.7759
53.7735
53.7711
53.7687
53.7663
53.7639
53.7615
53.7591
53.7567
53.7543
53.7519
53.7495
53.7471
53.7447
53.7423
53.7399
53.7376
53.7352
53.7328
53.7304
53.728
53.7256
53.7232
53.7208
53.7184
53.716
53.7136
53.7113
53.7089
53.7065
53.7041
53.7017
53.6993
53.6969
53.6946
53.6922
53.6898
53.6874
53.685
53.6826
53.6802
53.6779
53.6755
53.6731
53.6707
53.6683
53.6659
53.6636
53.6612
53.6588
53.6564
53.654
53.6517
53.6493
53.6469
53.6445
53.6421
53.6398
53.6374
53.635
53.6326
53.6303
53.6279
53.6255
53.6231
53.6208
53.6184
53.616
53.6136
53.6113
53.6089
53.6065
53.6041
53.6018
53.5994
53.597
53.5947
53.5923
53.5899
53.5875
53.5852
53.5828
53.5804
53.5781
53.5757
53.5733
53.571
53.5686
53.5662
53.5639
53.5615
53.5591
53.5568
53.5544
53.552
53.5497
53.5473
53.5449
53.5426
53.5402
53.5379
53.5355
53.5331
53.5308
53.5284
53.5261
53.5237
53.5213
53.519
53.5166
53.5143
53.5119
53.5095
53.5072
53.5048
53.5025
53.5001
53.4978
53.4954
53.493
53.4907
53.4883
53.486
53.4836
53.4813
53.4789
53.4766
53.4742
53.4719
53.4695
53.4671
53.4648
53.4624
53.4601
53.4577
53.4554
53.453
53.4507
53.4483
53.446
53.4436
53.4413
53.439
53.4366
53.4343
53.4319
53.4296
53.4272
53.4249
53.4225
53.4202
53.4178
53.4155
53.4132
53.4108
53.4085
53.4061
53.4038
53.4014
53.3991
53.3968
53.3944
53.3921
53.3897
53.3874
53.3851
53.3827
53.3804
53.378
53.3757
53.3734
53.371
53.3687
53.3663
53.364
53.3617
53.3593
53.357
53.3547
53.3523
53.35
53.3477
53.3453
53.343
53.3407
53.3383
53.336
53.3337
53.3313
53.329
53.3267
53.3243
53.322
53.3197
53.3174
53.315
53.3127
53.3104
53.308
53.3057
53.3034
53.3011
53.2987
53.2964
53.2941
53.2918
53.2894
53.2871
53.2848
53.2825
53.2801
53.2778
53.2755
53.2732
53.2708
53.2685
53.2662
53.2639
53.2616
53.2592
53.2569
53.2546
53.2523
53.25
53.2476
53.2453
53.243
53.2407
53.2384
53.236
53.2337
53.2314
53.2291
53.2268
53.2245
53.2222
53.2198
53.2175
53.2152
53.2129
53.2106
53.2083
53.206
53.2036
53.2013
53.199
53.1967
53.1944
53.1921
53.1898
53.1875
53.1852
53.1828
53.1805
53.1782
53.1759
53.1736
53.1713
53.169
53.1667
53.1644
53.1621
53.1598
53.1575
53.1552
53.1529
53.1506
53.1483
53.1459
53.1436
53.1413
53.139
53.1367
53.1344
53.1321
53.1298
53.1275
53.1252
53.1229
53.1206
53.1183
53.116
53.1137
53.1114
53.1091
53.1068
53.1045
53.1022
53.1
53.0977
53.0954
53.0931
53.0908
53.0885
53.0862
53.0839
53.0816
53.0793
53.077
53.0747
53.0724
53.0701
53.0678
53.0655
53.0633
53.061
53.0587
53.0564
53.0541
53.0518
53.0495
53.0472
53.0449
53.0427
53.0404
53.0381
53.0358
53.0335
53.0312
53.0289
53.0266
53.0244
53.0221
53.0198
53.0175
53.0152
53.0129
53.0107
53.0084
53.0061
53.0038
53.0015
52.9993
52.997
52.9947
52.9924
52.9901
52.9878
52.9856
52.9833
52.981
52.9787
52.9765
52.9742
52.9719
52.9696
52.9674
52.9651
52.9628
52.9605
52.9582
52.956
52.9537
52.9514
52.9492
52.9469
52.9446
52.9423
52.9401
52.9378
52.9355
52.9332
52.931
52.9287
52.9264
52.9242
52.9219
52.9196
52.9174
52.9151
52.9128
52.9106
52.9083
52.906
52.9038
52.9015
52.8992
52.897
52.8947
52.8924
52.8902
52.8879
52.8856
52.8834
52.8811
52.8788
52.8766
52.8743
52.8721
52.8698
52.8675
52.8653
52.863
52.8608
52.8585
52.8562
52.854
52.8517
52.8495
52.8472
52.8449
52.8427
52.8404
52.8382
52.8359
52.8337
52.8314
52.8292
52.8269
52.8246
52.8224
52.8201
52.8179
52.8156
52.8134
52.8111
52.8089
52.8066
52.8044
52.8021
52.7999
52.7976
52.7954
52.7931
52.7909
52.7886
52.7864
52.7841
52.7819
52.7796
52.7774
52.7751
52.7729
52.7706
52.7684
52.7661
52.7639
52.7617
52.7594
52.7572
52.7549
52.7527
52.7504
52.7482
52.746
52.7437
52.7415
52.7392
52.737
52.7347
52.7325
52.7303
52.728
52.7258
52.7235
52.7213
52.7191
52.7168
52.7146
52.7124
52.7101
52.7079
52.7056
52.7034
52.7012
52.6989
52.6967
52.6945
52.6922
52.69
52.6878
52.6855
52.6833
52.6811
52.6788
52.6766
52.6744
52.6721
52.6699
52.6677
52.6655
52.6632
52.661
52.6588
52.6565
52.6543
52.6521
52.6499
52.6476
52.6454
52.6432
52.6409
52.6387
52.6365
52.6343
52.632
52.6298
52.6276
52.6254
52.6232
52.6209
52.6187
52.6165
52.6143
52.612
52.6098
52.6076
52.6054
52.6032
52.6009
52.5987
52.5965
52.5943
52.5921
52.5898
52.5876
52.5854
52.5832
52.581
52.5788
52.5765
52.5743
52.5721
52.5699
52.5677
52.5655
52.5633
52.561
52.5588
52.5566
52.5544
52.5522
52.55
52.5478
52.5455
52.5433
52.5411
52.5389
52.5367
52.5345
52.5323
52.5301
52.5279
52.5257
52.5235
52.5212
52.519
52.5168
52.5146
52.5124
52.5102
52.508
52.5058
52.5036
52.5014
52.4992
52.497
52.4948
52.4926
52.4904
52.4882
52.486
52.4838
52.4816
52.4794
52.4772
52.475
52.4728
52.4706
52.4684
52.4662
52.464
52.4618
52.4596
52.4574
52.4552
52.453
52.4508
52.4486
52.4464
52.4442
52.442
52.4398
52.4376
52.4354
52.4332
52.431
52.4288
52.4266
52.4244
52.4223
52.4201
52.4179
52.4157
52.4135
52.4113
52.4091
52.4069
52.4047
52.4025
52.4004
52.3982
52.396
52.3938
52.3916
52.3894
52.3872
52.385
52.3829
52.3807
52.3785
52.3763
52.3741
52.3719
52.3697
52.3676
52.3654
52.3632
52.361
52.3588
52.3566
52.3545
52.3523
52.3501
52.3479
52.3457
52.3436
52.3414
52.3392
52.337
52.3348
52.3327
52.3305
52.3283
52.3261
52.324
52.3218
52.3196
52.3174
52.3153
52.3131
52.3109
52.3087
52.3066
52.3044
52.3022
52.3
52.2979
52.2957
52.2935
52.2913
52.2892
52.287
52.2848
52.2827
52.2805
52.2783
52.2762
52.274
52.2718
52.2697
52.2675
52.2653
52.2631
52.261
52.2588
52.2566
52.2545
52.2523
52.2502
52.248
52.2458
52.2437
52.2415
52.2393
52.2372
52.235
52.2328
52.2307
52.2285
52.2264
52.2242
52.222
52.2199
52.2177
52.2156
52.2134
52.2112
52.2091
52.2069
52.2048
52.2026
52.2004
52.1983
52.1961
52.194
52.1918
52.1897
52.1875
52.1853
52.1832
52.181
52.1789
52.1767
52.1746
52.1724
52.1703
52.1681
52.166
52.1638
52.1617
52.1595
52.1574
52.1552
52.1531
52.1509
52.1488
52.1466
52.1445
52.1423
52.1402
52.138
52.1359
52.1337
52.1316
52.1294
52.1273
52.1251
52.123
52.1209
52.1187
52.1166
52.1144
52.1123
52.1101
52.108
52.1058
52.1037
52.1016
52.0994
52.0973
52.0951
52.093
52.0909
52.0887
52.0866
52.0844
52.0823
52.0802
52.078
52.0759
52.0738
52.0716
52.0695
52.0673
52.0652
52.0631
52.0609
52.0588
52.0567
52.0545
52.0524
52.0503
52.0481
52.046
52.0439
52.0417
52.0396
52.0375
52.0353
52.0332
52.0311
52.0289
52.0268
52.0247
52.0226
52.0204
52.0183
52.0162
52.014
52.0119
52.0098
52.0077
52.0055
52.0034
52.0013
51.9992
51.997
51.9949
51.9928
51.9907
51.9885
51.9864
51.9843
51.9822
51.98
51.9779
51.9758
51.9737
51.9715
51.9694
51.9673
51.9652
51.9631
51.9609
51.9588
51.9567
51.9546
51.9525
51.9504
51.9482
51.9461
51.944