# vtk DataFile Version 2.0
vtk output
ASCII
DATASET STRUCTURED_GRID
DIMENSIONS 50 10 30
POINTS 15000 float
0 0 0
1 0 0
2 0 0
3 0 0
4 0 0
5 0 0
6 0 0
7 0 0
8 0 0
9 0 0
10 0 0
11 0 0
12 0 0
13 0 0
14 0 0
15 0 0
16 0 0
17 0 0
18 0 0
19 0 0
20 0 0
21 0 0
22 0 0
23 0 0
24 0 0
25 0 0
26 0 0
27 0 0
28 0 0
29 0 0
30 0 0
31 0 0
32 0 0
33 0 0
34 0 0
35 0 0
36 0 0
37 0 0
38 0 0
39 0 0
40 0 0
41 0 0
42 0 0
43 0 0
44 0 0
45 0 0
46 0 0
47 0 0
48 0 0
49 0 0
0 1 0
1 1 0
2 1 0
3 1 0
4 1 0
5 1 0
6 1 0
7 1 0
8 1 0
9 1 0
10 1 0
11 1 0
12 1 0
13 1 0
14 1 0
15 1 0
16 1 0
17 1 0
18 1 0
19 1 0
20 1 0
21 1 0
22 1 0
23 1 0
24 1 0
25 1 0
26 1 0
27 1 0
28 1 0
29 1 0
30 1 0
31 1 0
32 1 0
33 1 0
34 1 0
35 1 0
36 1 0
37 1 0
38 1 0
39 1 0
40 1 0
41 1 0
42 1 0
43 1 0
44 1 0
45 1 0
46 1 0
47 1 0
48 1 0
49 1 0
0 2 0
1 2 0
2 2 0
3 2 0
4 2 0
5 2 0
6 2 0
7 2 0
8 2 0
9 2 0
10 2 0
11 2 0
12 2 0
13 2 0
14 2 0
15 2 0
16 2 0
17 2 0
18 2 0
19 2 0
20 2 0
21 2 0
22 2 0
23 2 0
24 2 0
25 2 0
26 2 0
27 2 0
28 2 0
29 2 0
30 2 0
31 2 0
32 2 0
33 2 0
34 2 0
35 2 0
36 2 0
37 2 0
38 2 0
39 2 0
40 2 0
41 2 0
42 2 0
43 2 0
44 2 0
45 2 0
46 2 0
47 2 0
48 2 0
49 2 0
0 3 0
1 3 0
2 3 0
3 3 0
4 3 0
5 3 0
6 3 0
7 3 0
8 3 0
9 3 0
10 3 0
11 3 0
12 3 0
13 3 0
14 3 0
15 3 0
16 3 0
17 3 0
18 3 0
19 3 0
20 3 0
21 3 0
22 3 0
23 3 0
24 3 0
25 3 0
26 3 0
27 3 0
28 3 0
29 3 0
30 3 0
31 3 0
32 3 0
33 3 0
34 3 0
35 3 0
36 3 0
37 3 0
38 3 0
39 3 0
40 3 0
41 3 0
42 3 0
43 3 0
44 3 0
45 3 0
46 3 0
47 3 0
48 3 0
49 3 0
0 4 0
1 4 0
2 4 0
3 4 0
4 4 0
5 4 0
6 4 0
7 4 0
8 4 0
9 4 0
10 4 0
11 4 0
12 4 0
13 4 0
14 4 0
15 4 0
16 4 0
17 4 0
18 4 0
19 4 0
20 4 0
21 4 0
22 4 0
23 4 0
24 4 0
25 4 0
26 4 0
27 4 0
28 4 0
29 4 0
30 4 0
31 4 0
32 4 0
33 4 0
34 4 0
35 4 0
36 4 0
37 4 0
38 4 0
39 4 0
40 4 0
41 4 0
42 4 0
43 4 0
44 4 0
45 4 0
46 4 0
47 4 0
48 4 0
49 4 0
0 5 0
1 5 0
2 5 0
3 5 0
4 5 0
5 5 0
6 5 0
7 5 0
8 5 0
9 5 0
10 5 0
11 5 0
12 5 0
13 5 0
14 5 0
15 5 0
16 5 0
17 5 0
18 5 0
19 5 0
20 5 0
21 5 0
22 5 0
23 5 0
24 5 0
25 5 0
26 5 0
27 5 0
28 5 0
29 5 0
30 5 0
31 5 0
32 5 0
33 5 0
34 5 0
35 5 0
36 5 0
37 5 0
38 5 0
39 5 0
40 5 0
41 5 0
42 5 0
43 5 0
44 5 0
45 5 0
46 5 0
47 5 0
48 5 0
49 5 0
0 6 0
1 6 0
2 6 0
3 6 0
4 6 0
5 6 0
6 6 0
7 6 0
8 6 0
9 6 0
10 6 0
11 6 0
12 6 0
13 6 0
14 6 0
15 6 0
16 6 0
17 6 0
18 6 0
19 6 0
20 6 0
21 6 0
22 6 0
23 6 0
24 6 0
25 6 0
26 6 0
27 6 0
28 6 0
29 6 0
30 6 0
31 6 0
32 6 0
33 6 0
34 6 0
35 6 0
36 6 0
37 6 0
38 6 0
39 6 0
40 6 0
41 6 0
42 6 0
43 6 0
44 6 0
45 6 0
46 6 0
47 6 0
48 6 0
49 6 0
0 7 0
1 7 0
2 7 0
3 7 0
4 7 0
5 7 0
6 7 0
7 7 0
8 7 0
9 7 0
10 7 0
11 7 0
12 7 0
13 7 0
14 7 0
15 7 0
16 7 0
17 7 0
18 7 0
19 7 0
20 7 0
21 7 0
22 7 0
23 7 0
24 7 0
25 7 0
26 7 0
27 7 0
28 7 0
29 7 0
30 7 0
31 7 0
32 7 0
33 7 0
34 7 0
35 7 0
36 7 0
37 7 0
38 7 0
39 7 0
40 7 0
41 7 0
42 7 0
43 7 0
44 7 0
45 7 0
46 7 0
47 7 0
48 7 0
49 7 0
0 8 0
1 8 0
2 8 0
3 8 0
4 8 0
5 8 0
6 8 0
7 8 0
8 8 0
9 8 0
10 8 0
11 8 0
12 8 0
13 8 0
14 8 0
15 8 0
16 8 0
17 8 0
18 8 0
19 8 0
20 8 0
21 8 0
22 8 0
23 8 0
24 8 0
25 8 0
26 8 0
27 8 0
28 8 0
29 8 0
30 8 0
31 8 0
32 8 0
33 8 0
34 8 0
35 8 0
36 8 0
37 8 0
38 8 0
39 8 0
40 8 0
41 8 0
42 8 0
43 8 0
44 8 0
45 8 0
46 8 0
47 8 0
48 8 0
49 8 0
0 9 0
1 9 0
2 9 0
3 9 0
4 9 0
5 9 0
6 9 0
7 9 0
8 9 0
9 9 0
10 9 0
11 9 0
12 9 0
13 9 0
14 9 0
15 9 0
16 9 0
17 9 0
18 9 0
19 9 0
20 9 0
21 9 0
22 9 0
23 9 0
24 9 0
25 9 0
26 9 0
27 9 0
28 9 0
29 9 0
30 9 0
31 9 0
32 9 0
33 9 0
34 9 0
35 9 0
36 9 0
37 9 0
38 9 0
39 9 0
40 9 0
41 9 0
42 9 0
43 9 0
44 9 0
45 9 0
46 9 0
47 9 0
48 9 0
49 9 0
0 0 1
1 0 1
2 0 1
3 0 1
4 0 1
5 0 1
6 0 1
7 0 1
8 0 1
9 0 1
10 0 1
11 0 1
12 0 1
13 0 1
14 0 1
15 0 1
16 0 1
17 0 1
18 0 1
19 0 1
20 0 1
21 0 1
22 0 1
23 0 1
24 0 1
25 0 1
26 0 1
27 0 1
28 0 1
29 0 1
30 0 1
31 0 1
32 0 1
33 0 1
34 0 1
35 0 1
36 0 1
37 0 1
38 0 1
39 0 1
40 0 1
41 0 1
42 0 1
43 0 1
44 0 1
45 0 1
46 0 1
47 0 1
48 0 1
49 0 1
0 1 1
1 1 1
2 1 1
3 1 1
4 1 1
5 1 1
6 1 1
7 1 1
8 1 1
9 1 1
10 1 1
11 1 1
12 1 1
13 1 1
14 1 1
15 1 1
16 1 1
17 1 1
18 1 1
19 1 1
20 1 1
21 1 1
22 1 1
23 1 1
24 1 1
25 1 1
26 1 1
27 1 1
28 1 1
29 1 1
30 1 1
31 1 1
32 1 1
33 1 1
34 1 1
35 1 1
36 1 1
37 1 1
38 1 1
39 1 1
40 1 1
41 1 1
42 1 1
43 1 1
44 1 1
45 1 1
46 1 1
47 1 1
48 1 1
49 1 1
0 2 1
1 2 1
2 2 1
3 2 1
4 2 1
5 2 1
6 2 1
7 2 1
8 2 1
9 2 1
10 2 1
11 2 1
12 2 1
13 2 1
14 2 1
15 2 1
16 2 1
17 2 1
18 2 1
19 2 1
20 2 1
21 2 1
22 2 1
23 2 1
24 2 1
25 2 1
26 2 1
27 2 1
28 2 1
29 2 1
30 2 1
31 2 1
32 2 1
33 2 1
34 2 1
35 2 1
36 2 1
37 2 1
38 2 1
39 2 1
40 2 1
41 2 1
42 2 1
43 2 1
44 2 1
45 2 1
46 2 1
47 2 1
48 2 1
49 2 1
0 3 1
1 3 1
2 3 1
3 3 1
4 3 1
5 3 1
6 3 1
7 3 1
8 3 1
9 3 1
10 3 1
11 3 1
12 3 1
13 3 1
14 3 1
15 3 1
16 3 1
17 3 1
18 3 1
19 3 1
20 3 1
21 3 1
22 3 1
23 3 1
24 3 1
25 3 1
26 3 1
27 3 1
28 3 1
29 3 1
30 3 1
31 3 1
32 3 1
33 3 1
34 3 1
35 3 1
36 3 1
37 3 1
38 3 1
39 3 1
40 3 1
41 3 1
42 3 1
43 3 1
44 3 1
45 3 1
46 3 1
47 3 1
48 3 1
49 3 1
0 4 1
1 4 1
2 4 1
3 4 1
4 4 1
5 4 1
6 4 1
7 4 1
8 4 1
9 4 1
10 4 1
11 4 1
12 4 1
13 4 1
14 4 1
15 4 1
16 4 1
17 4 1
18 4 1
19 4 1
20 4 1
21 4 1
22 4 1
23 4 1
24 4 1
25 4 1
26 4 1
27 4 1
28 4 1
29 4 1
30 4 1
31 4 1
32 4 1
33 4 1
34 4 1
35 4 1
36 4 1
37 4 1
38 4 1
39 4 1
40 4 1
41 4 1
42 4 1
43 4 1
44 4 1
45 4 1
46 4 1
47 4 1
48 4 1
49 4 1
0 5 1
1 5 1
2 5 1
3 5 1
4 5 1
5 5 1
6 5 1
7 5 1
8 5 1
9 5 1
10 5 1
11 5 1
12 5 1
13 5 1
14 5 1
15 5 1
16 5 1
17 5 1
18 5 1
19 5 1
20 5 1
21 5 1
22 5 1
23 5 1
24 5 1
25 5 1
26 5 1
27 5 1
28 5 1
29 5 1
30 5 1
31 5 1
32 5 1
33 5 1
34 5 1
35 5 1
36 5 1
37 5 1
38 5 1
39 5 1
40 5 1
41 5 1
42 5 1
43 5 1
44 5 1
45 5 1
46 5 1
47 5 1
48 5 1
49 5 1
0 6 1
1 6 1
2 6 1
3 6 1
4 6 1
5 6 1
6 6 1
7 6 1
8 6 1
9 6 1
10 6 1
11 6 1
12 6 1
13 6 1
14 6 1
15 6 1
16 6 1
17 6 1
18 6 1
19 6 1
20 6 1
21 6 1
22 6 1
23 6 1
24 6 1
25 6 1
26 6 1
27 6 1
28 6 1
29 6 1
30 6 1
31 6 1
32 6 1
33 6 1
34 6 1
35 6 1
36 6 1
37 6 1
38 6 1
39 6 1
40 6 1
41 6 1
42 6 1
43 6 1
44 6 1
45 6 1
46 6 1
47 6 1
48 6 1
49 6 1
0 7 1
1 7 1
2 7 1
3 7 1
4 7 1
5 7 1
6 7 1
7 7 1
8 7 1
9 7 1
10 7 1
11 7 1
12 7 1
13 7 1
14 7 1
15 7 1
16 7 1
17 7 1
18 7 1
19 7 1
20 7 1
21 7 1
22 7 1
23 7 1
24 7 1
25 7 1
26 7 1
27 7 1
28 7 1
29 7 1
30 7 1
31 7 1
32 7 1
33 7 1
34 7 1
35 7 1
36 7 1
37 7 1
38 7 1
39 7 1
40 7 1
41 7 1
42 7 1
43 7 1
44 7 1
45 7 1
46 7 1
47 7 1
48 7 1
49 7 1
0 8 1
1 8 1
2 8 1
3 8 1
4 8 1
5 8 1
6 8 1
7 8 1
8 8 1
9 8 1
10 8 1
11 8 1
12 8 1
13 8 1
14 8 1
15 8 1
16 8 1
17 8 1
18 8 1
19 8 1
20 8 1
21 8 1
22 8 1
23 8 1
24 8 1
25 8 1
26 8 1
27 8 1
28 8 1
29 8 1
30 8 1
31 8 1
32 8 1
33 8 1
34 8 1
35 8 1
36 8 1
37 8 1
38 8 1
39 8 1
40 8 1
41 8 1
42 8 1
43 8 1
44 8 1
45 8 1
46 8 1
47 8 1
48 8 1
49 8 1
0 9 1
1 9 1
2 9 1
3 9 1
4 9 1
5 9 1
6 9 1
7 9 1
8 9 1
9 9 1
10 9 1
11 9 1
12 9 1
13 9 1
14 9 1
15 9 1
16 9 1
17 9 1
18 9 1
19 9 1
20 9 1
21 9 1
22 9 1
23 9 1
24 9 1
25 9 1
26 9 1
27 9 1
28 9 1
29 9 1
30 9 1
31 9 1
32 9 1
33 9 1
34 9 1
35 9 1
36 9 1
37 9 1
38 9 1
39 9 1
40 9 1
41 9 1
42 9 1
43 9 1
44 9 1
45 9 1
46 9 1
47 9 1
48 9 1
49 9 1
0 0 2
1 0 2
2 0 2
3 0 2
4 0 2
5 0 2
6 0 2
7 0 2
8 0 2
9 0 2
10 0 2
11 0 2
12 0 2
13 0 2
14 0 2
15 0 2
16 0 2
17 0 2
18 0 2
19 0 2
20 0 2
21 0 2
22 0 2
23 0 2
24 0 2
25 0 2
26 0 2
27 0 2
28 0 2
29 0 2
30 0 2
31 0 2
32 0 2
33 0 2
34 0 2
35 0 2
36 0 2
37 0 2
38 0 2
39 0 2
40 0 2
41 0 2
42 0 2
43 0 2
44 0 2
45 0 2
46 0 2
47 0 2
48 0 2
49 0 2
0 1 2
1 1 2
2 1 2
3 1 2
4 1 2
5 1 2
6 1 2
7 1 2
8 1 2
9 1 2
10 1 2
11 1 2
12 1 2
13 1 2
14 1 2
15 1 2
16 1 2
17 1 2
18 1 2
19 1 2
20 1 2
21 1 2
22 1 2
23 1 2
24 1 2
25 1 2
26 1 2
27 1 2
28 1 2
29 1 2
30 1 2
31 1 2
32 1 2
33 1 2
34 1 2
35 1 2
36 1 2
37 1 2
38 1 2
39 1 2
40 1 2
41 1 2
42 1 2
43 1 2
44 1 2
45 1 2
46 1 2
47 1 2
48 1 2
49 1 2
0 2 2
1 2 2
2 2 2
3 2 2
4 2 2
5 2 2
6 2 2
7 2 2
8 2 2
9 2 2
10 2 2
11 2 2
12 2 2
13 2 2
14 2 2
15 2 2
16 2 2
17 2 2
18 2 2
19 2 2
20 2 2
21 2 2
22 2 2
23 2 2
24 2 2
25 2 2
26 2 2
27 2 2
28 2 2
29 2 2
30 2 2
31 2 2
32 2 2
33 2 2
34 2 2
35 2 2
36 2 2
37 2 2
38 2 2
39 2 2
40 2 2
41 2 2
42 2 2
43 2 2
44 2 2
45 2 2
46 2 2
47 2 2
48 2 2
49 2 2
0 3 2
1 3 2
2 3 2
3 3 2
4 3 2
5 3 2
6 3 2
7 3 2
8 3 2
9 3 2
10 3 2
11 3 2
12 3 2
13 3 2
14 3 2
15 3 2
16 3 2
17 3 2
18 3 2
19 3 2
20 3 2
21 3 2
22 3 2
23 3 2
24 3 2
25 3 2
26 3 2
27 3 2
28 3 2
29 3 2
30 3 2
31 3 2
32 3 2
33 3 2
34 3 2
35 3 2
36 3 2
37 3 2
38 3 2
39 3 2
40 3 2
41 3 2
42 3 2
43 3 2
44 3 2
45 3 2
46 3 2
47 3 2
48 3 2
49 3 2
0 4 2
1 4 2
2 4 2
3 4 2
4 4 2
5 4 2
6 4 2
7 4 2
8 4 2
9 4 2
10 4 2
11 4 2
12 4 2
13 4 2
14 4 2
15 4 2
16 4 2
17 4 2
18 4 2
19 4 2
20 4 2
21 4 2
22 4 2
23 4 2
24 4 2
25 4 2
26 4 2
27 4 2
28 4 2
29 4 2
30 4 2
31 4 2
32 4 2
33 4 2
34 4 2
35 4 2
36 4 2
37 4 2
38 4 2
39 4 2
40 4 2
41 4 2
42 4 2
43 4 2
44 4 2
45 4 2
46 4 2
47 4 2
48 4 2
49 4 2
0 5 2
1 5 2
2 5 2
3 5 2
4 5 2
5 5 2
6 5 2
7 5 2
8 5 2
9 5 2
10 5 2
11 5 2
12 5 2
13 5 2
14 5 2
15 5 2
16 5 2
17 5 2
18 5 2
19 5 2
20 5 2
21 5 2
22 5 2
23 5 2
24 5 2
25 5 2
26 5 2
27 5 2
28 5 2
29 5 2
30 5 2
31 5 2
32 5 2
33 5 2
34 5 2
35 5 2
36 5 2
37 5 2
38 5 2
39 5 2
40 5 2
41 5 2
42 5 2
43 5 2
44 5 2
45 5 2
46 5 2
47 5 2
48 5 2
49 5 2
0 6 2
1 6 2
2 6 2
3 6 2
4 6 2
5 6 2
6 6 2
7 6 2
8 6 2
9 6 2
10 6 2
11 6 2
12 6 2
13 6 2
14 6 2
15 6 2
16 6 2
17 6 2
18 6 2
19 6 2
20 6 2
21 6 2
22 6 2
23 6 2
24 6 2
25 6 2
26 6 2
27 6 2
28 6 2
29 6 2
30 6 2
31 6 2
32 6 2
33 6 2
34 6 2
35 6 2
36 6 2
37 6 2
38 6 2
39 6 2
40 6 2
41 6 2
42 6 2
43 6 2
44 6 2
45 6 2
46 6 2
47 6 2
48 6 2
49 6 2
0 7 2
1 7 2
2 7 2
3 7 2
4 7 2
5 7 2
6 7 2
7 7 2
8 7 2
9 7 2
10 7 2
11 7 2
12 7 2
13 7 2
14 7 2
15 7 2
16 7 2
17 7 2
18 7 2
19 7 2
20 7 2
21 7 2
22 7 2
23 7 2
24 7 2
25 7 2
26 7 2
27 7 2
28 7 2
29 7 2
30 7 2
31 7 2
32 7 2
33 7 2
34 7 2
35 7 2
36 7 2
37 7 2
38 7 2
39 7 2
40 7 2
41 7 2
42 7 2
43 7 2
44 7 2
45 7 2
46 7 2
47 7 2
48 7 2
49 7 2
0 8 2
1 8 2
2 8 2
3 8 2
4 8 2
5 8 2
6 8 2
7 8 2
8 8 2
9 8 2
10 8 2
11 8 2
12 8 2
13 8 2
14 8 2
15 8 2
16 8 2
17 8 2
18 8 2
19 8 2
20 8 2
21 8 2
22 8 2
23 8 2
24 8 2
25 8 2
26 8 2
27 8 2
28 8 2
29 8 2
30 8 2
31 8 2
32 8 2
33 8 2
34 8 2
35 8 2
36 8 2
37 8 2
38 8 2
39 8 2
40 8 2
41 8 2
42 8 2
43 8 2
44 8 2
45 8 2
46 8 2
47 8 2
48 8 2
49 8 2
0 9 2
1 9 2
2 9 2
3 9 2
4 9 2
[...]
POINT_DATA 15000
SCALARS sol331 float
LOOKUP_TABLE default
58.4272
58.4241
58.4211
58.418
58.415
58.4119
58.4089
58.4058
58.4028
58.3997
58.3967
58.3936
58.3906
58.3876
58.3845
58.3815
58.3784
58.3754
58.3723
58.3693
58.3663
58.3632
58.3602
58.3571
58.3541
58.3511
58.348
58.345
58.3419
58.3389
58.3359
58.3328
58.3298
58.3268
58.3237
58.3207
58.3177
58.3146
58.3116
58.3086
58.3055
58.3025
58.2995
58.2964
58.2934
58.2904
58.2873
58.2843
58.2813
58.2782
58.2752
58.2722
58.2692
58.2661
58.2631
58.2601
58.257
58.254
58.251
58.248
58.2449
58.2419
58.2389
58.2359
58.2328
58.2298
58.2268
58.2238
58.2208
58.2177
58.2147
58.2117
58.2087
58.2057
58.2026
58.1996
58.1966
58.1936
58.1906
58.1875
58.1845
58.1815
58.1785
58.1755
58.1725
58.1695
58.1664
58.1634
58.1604
58.1574
58.1544
58.1514
58.1484
58.1453
58.1423
58.1393
58.1363
58.1333
58.1303
58.1273
58.1243
58.1213
58.1183
58.1153
58.1122
58.1092
58.1062
58.1032
58.1002
58.0972
58.0942
58.0912
58.0882
58.0852
58.0822
58.0792
58.0762
58.0732
58.0702
58.0672
58.0642
58.0612
58.0582
58.0552
58.0522
58.0492
58.0462
58.0432
58.0402
58.0372
58.0342
58.0312
58.0282
58.0252
58.0222
58.0192
58.0162
58.0132
58.0102
58.0072
58.0043
58.0013
57.9983
57.9953
57.9923
57.9893
57.9863
57.9833
57.9803
57.9773
57.9743
57.9714
57.9684
57.9654
57.9624
57.9594
57.9564
57.9534
57.9505
57.9475
57.9445
57.9415
57.9385
57.9355
57.9325
57.9296
57.9266
57.9236
57.9206
57.9176
57.9147
57.9117
57.9087
57.9057
57.9027
57.8998
57.8968
57.8938
57.8908
57.8878
57.8849
57.8819
57.8789
57.8759
57.873
57.87
57.867
57.864
57.8611
57.8581
57.8551
57.8522
57.8492
57.8462
57.8432
57.8403
57.8373
57.8343
57.8314
57.8284
57.8254
57.8225
57.8195
57.8165
57.8135
57.8106
57.8076
57.8046
57.8017
57.7987
57.7958
57.7928
57.7898
57.7869
57.7839
57.7809
57.778
57.775
57.772
57.7691
57.7661
57.7632
57.7602
57.7572
57.7543
57.7513
57.7484
57.7454
57.7425
57.7395
57.7365
57.7336
57.7306
57.7277
57.7247
57.7218
57.7188
57.7159
57.7129
57.7099
57.707
57.704
57.7011
57.6981
57.6952
57.6922
57.6893
57.6863
57.6834
57.6804
57.6775
57.6745
57.6716
57.6686
57.6657
57.6627
57.6598
57.6569
57.6539
57.651
57.648
57.6451
57.6421
57.6392
57.6362
57.6333
57.6304
57.6274
57.6245
57.6215
57.6186
57.6157
57.6127
57.6098
57.6068
57.6039
57.601
57.598
57.5951
57.5921
57.5892
57.5863
57.5833
57.5804
57.5775
57.5745
57.5716
57.5687
57.5657
57.5628
57.5599
57.5569
57.554
57.5511
57.5481
57.5452
57.5423
57.5393
57.5364
57.5335
57.5305
57.5276
57.5247
57.5218
57.5188
57.5159
57.513
57.5101
57.5071
57.5042
57.5013
57.4984
57.4954
57.4925
57.4896
57.4867
57.4837
57.4808
57.4779
57.475
57.4721
57.4691
57.4662
57.4633
57.4604
57.4575
57.4545
57.4516
57.4487
57.4458
57.4429
57.4399
57.437
57.4341
57.4312
57.4283
57.4254
57.4225
57.4195
57.4166
57.4137
57.4108
57.4079
57.405
57.4021
57.3992
57.3962
57.3933
57.3904
57.3875
57.3846
57.3817
57.3788
57.3759
57.373
57.3701
57.3672
57.3642
57.3613
57.3584
57.3555
57.3526
57.3497
57.3468
57.3439
57.341
57.3381
57.3352
57.3323
57.3294
57.3265
57.3236
57.3207
57.3178
57.3149
57.312
57.3091
57.3062
57.3033
57.3004
57.2975
57.2946
57.2917
57.2888
57.2859
57.283
57.2801
57.2772
57.2743
57.2714
57.2686
57.2657
57.2628
57.2599
57.257
57.2541
57.2512
57.2483
57.2454
57.2425
57.2396
57.2367
57.2339
57.231
57.2281
57.2252
57.2223
57.2194
57.2165
57.2136
57.2108
57.2079
57.205
57.2021
57.1992
57.1963
57.1935
57.1906
57.1877
57.1848
57.1819
57.179
57.1762
57.1733
57.1704
57.1675
57.1646
57.1618
57.1589
57.156
57.1531
57.1503
57.1474
57.1445
57.1416
57.1387
57.1359
57.133
57.1301
57.1272
57.1244
57.1215
57.1186
57.1158
57.1129
57.11
57.1071
57.1043
57.1014
57.0985
57.0957
57.0928
57.0899
57.087
57.0842
57.0813
57.0784
57.0756
57.0727
57.0698
57.067
57.0641
57.0612
57.0584
57.0555
57.0527
57.0498
57.0469
57.0441
57.0412
57.0383
57.0355
57.0326
57.0298
57.0269
57.024
57.0212
57.0183
57.0155
57.0126
57.0097
57.0069
57.004
57.0012
56.9983
56.9955
56.9926
56.9897
56.9869
56.984
56.9812
56.9783
56.9755
56.9726
56.9698
56.9669
56.9641
56.9612
56.9584
56.9555
56.9527
56.9498
56.947
56.9441
56.9413
56.9384
56.9356
56.9327
56.9299
56.927
56.9242
56.9213
56.9185
56.9156
56.9128
56.9099
56.9071
56.9043
56.9014
56.8986
56.8957
56.8929
56.89
56.8872
56.8844
56.8815
56.8787
56.8758
56.873
56.8702
56.8673
56.8645
56.8616
56.8588
56.856
56.8531
56.8503
56.8475
56.8446
56.8418
56.839
56.8361
56.8333
56.8304
56.8276
56.8248
56.8219
56.8191
56.8163
56.8135
56.8106
56.8078
56.805
56.8021
56.7993
56.7965
56.7936
56.7908
56.788
56.7852
56.7823
56.7795
56.7767
56.7739
56.771
56.7682
56.7654
56.7626
56.7597
56.7569
56.7541
56.7513
56.7484
56.7456
56.7428
56.74
56.7372
56.7343
56.7315
56.7287
56.7259
56.7231
56.7202
56.7174
56.7146
56.7118
56.709
56.7061
56.7033
56.7005
56.6977
56.6949
56.6921
56.6893
56.6864
56.6836
56.6808
56.678
56.6752
56.6724
56.6696
56.6668
56.6639
56.6611
56.6583
56.6555
56.6527
56.6499
56.6471
56.6443
56.6415
56.6387
56.6359
56.633
56.6302
56.6274
56.6246
56.6218
56.619
56.6162
56.6134
56.6106
56.6078
56.605
56.6022
56.5994
56.5966
56.5938
56.591
56.5882
56.5854
56.5826
56.5798
56.577
56.5742
56.5714
56.5686
56.5658
56.563
56.5602
56.5574
56.5546
56.5518
56.549
56.5462
56.5434
56.5406
56.5378
56.5351
56.5323
56.5295
56.5267
56.5239
56.5211
56.5183
56.5155
56.5127
56.5099
56.5071
56.5044
56.5016
56.4988
56.496
56.4932
56.4904
56.4876
56.4848
56.4821
56.4793
56.4765
56.4737
56.4709
56.4681
56.4654
56.4626
56.4598
56.457
56.4542
56.4514
56.4487
56.4459
56.4431
56.4403
56.4375
56.4348
56.432
56.4292
56.4264
56.4236
56.4209
56.4181
56.4153
56.4125
56.4098
56.407
56.4042
56.4014
56.3987
56.3959
56.3931
56.3903
56.3876
56.3848
56.382
56.3793
56.3765
56.3737
56.3709
56.3682
56.3654
56.3626
56.3599
56.3571
56.3543
56.3516
56.3488
56.346
56.3433
56.3405
56.3377
56.335
56.3322
56.3294
56.3267
56.3239
56.3211
56.3184
56.3156
56.3128
56.3101
56.3073
56.3046
56.3018
56.299
56.2963
56.2935
56.2908
56.288
56.2852
56.2825
56.2797
56.277
56.2742
56.2715
56.2687
56.2659
56.2632
56.2604
56.2577
56.2549
56.2522
56.2494
56.2467
56.2439
56.2412
56.2384
56.2357
56.2329
56.2302
56.2274
56.2247
56.2219
56.2192
56.2164
56.2137
56.2109
56.2082
56.2054
56.2027
56.1999
56.1972
56.1944
56.1917
56.1889
56.1862
56.1834
56.1807
56.178
56.1752
56.1725
56.1697
56.167
56.1642
56.1615
56.1588
56.156
56.1533
56.1505
56.1478
56.1451
56.1423
56.1396
56.1368
56.1341
56.1314
56.1286
56.1259
56.1232
56.1204
56.1177
56.115
56.1122
56.1095
56.1068
56.104
56.1013
56.0986
56.0958
56.0931
56.0904
56.0876
56.0849
56.0822
56.0794
56.0767
56.074
56.0712
56.0685
56.0658
56.0631
56.0603
56.0576
56.0549
56.0522
56.0494
56.0467
56.044
56.0413
56.0385
56.0358
56.0331
56.0304
56.0276
56.0249
56.0222
56.0195
56.0168
56.014
56.0113
56.0086
56.0059
56.0031
56.0004
55.9977
55.995
55.9923
55.9896
55.9868
55.9841
55.9814
55.9787
55.976
55.9733
55.9705
55.9678
55.9651
55.9624
55.9597
55.957
55.9543
55.9516
55.9488
55.9461
55.9434
55.9407
55.938
55.9353
55.9326
55.9299
55.9272
55.9245
55.9217
55.919
55.9163
55.9136
55.9109
55.9082
55.9055
55.9028
55.9001
55.8974
55.8947
55.892
55.8893
55.8866
55.8839
55.8812
55.8785
55.8758
55.8731
55.8704
55.8677
55.865
55.8623
55.8596
55.8569
55.8542
55.8515
55.8488
55.8461
55.8434
55.8407
55.838
55.8353
55.8326
55.8299
55.8272
55.8245
55.8218
55.8191
55.8164
55.8137
55.811
55.8084
55.8057
55.803
55.8003
55.7976
55.7949
55.7922
55.7895
55.7868
55.7841
55.7815
55.7788
55.7761
55.7734
55.7707
55.768
55.7653
55.7626
55.76
55.7573
55.7546
55.7519
55.7492
55.7465
55.7439
55.7412
55.7385
55.7358
55.7331
55.7304
55.7278
55.7251
55.7224
55.7197
55.717
55.7144
55.7117
55.709
55.7063
55.7037
55.701
55.6983
55.6956
55.6929
55.6903
55.6876
55.6849
55.6822
55.6796
55.6769
55.6742
55.6716
55.6689
55.6662
55.6635
55.6609
55.6582
55.6555
55.6529
55.6502
55.6475
55.6448
55.6422
55.6395
55.6368
55.6342
55.6315
55.6288
55.6262
55.6235
55.6208
55.6182
55.6155
55.6128
55.6102
55.6075
55.6049
55.6022
55.5995
55.5969
55.5942
55.5915
55.5889
55.5862
55.5836
55.5809
55.5782
55.5756
55.5729
55.5703
55.5676
55.5649
55.5623
55.5596
55.557
55.5543
55.5517
55.549
55.5464
55.5437
55.541
55.5384
55.5357
55.5331
55.5304
55.5278
55.5251
55.5225
55.5198
55.5172
55.5145
55.5119
55.5092
55.5066
55.5039
55.5013
55.4986
55.496
55.4933
55.4907
55.488
55.4854
55.4827
55.4801
55.4774
55.4748
55.4722
55.4695
55.4669
55.4642
55.4616
55.4589
55.4563
55.4537
55.451
55.4484
55.4457
55.4431
55.4405
55.4378
55.4352
55.4325
55.4299
55.4273
55.4246
55.422
55.4193
55.4167
55.4141
55.4114
55.4088
55.4062
55.4035
55.4009
55.3983
55.3956
55.393
55.3904
55.3877
55.3851
55.3825
55.3798
55.3772
55.3746
55.3719
55.3693
55.3667
55.364
55.3614
55.3588
55.3562
55.3535
55.3509
55.3483
55.3456
55.343
55.3404
55.3378
55.3351
55.3325
55.3299
55.3273
55.3246
55.322
55.3194
55.3168
55.3142
55.3115
55.3089
55.3063
55.3037
55.3011
55.2984
55.2958
55.2932
55.2906
55.288
55.2853
55.2827
55.2801
55.2775
55.2749
55.2723
55.2696
55.267
55.2644
55.2618
55.2592
55.2566
55.2539
55.2513
55.2487
55.2461
55.2435
55.2409
55.2383
55.2357
55.233
55.2304
55.2278
55.2252
55.2226
55.22
55.2174
55.2148
55.2122
55.2096
55.207
55.2044
55.2017
55.1991
55.1965
55.1939
55.1913
55.1887
55.1861
55.1835
55.1809
55.1783
55.1757
55.1731
55.1705
55.1679
55.1653
55.1627
55.1601
55.1575
55.1549
55.1523
55.1497
55.1471
55.1445
55.1419
55.1393
55.1367
55.1341
55.1315
55.1289
55.1263
55.1237
55.1211
55.1185
55.1159
55.1134
55.1108
55.1082
55.1056
55.103
55.1004
55.0978
55.0952
55.0926
55.09
55.0874
55.0848
55.0823
55.0797
55.0771
55.0745
55.0719
55.0693
55.0667
55.0641
55.0616
55.059
55.0564
55.0538
55.0512
55.0486
55.046
55.0435
55.0409
55.0383
55.0357
55.0331
55.0305
55.028
55.0254
55.0228
55.0202
55.0176
55.0151
55.0125
55.0099
55.0073
55.0047
55.0022
54.9996
54.997
54.9944
54.9919
54.9893
54.9867
54.9841
54.9816
54.979
54.9764
54.9738
54.9713
54.9687
54.9661
54.9635
54.961
54.9584
54.9558
54.9533
54.9507
54.9481
54.9456
54.943
54.9404
54.9378
54.9353
54.9327
54.9301
54.9276
54.925
54.9224
54.9199
54.9173
54.9147
54.9122
54.9096
54.907
54.9045
54.9019
54.8994
54.8968
54.8942
54.8917
54.8891
54.8865
54.884
54.8814
54.8789
54.8763
54.8737
54.8712
54.8686
54.8661
54.8635
54.861
54.8584
54.8558
54.8533
54.8507
54.8482
54.8456
54.8431
54.8405
54.838
54.8354
54.8328
54.8303
54.8277
54.8252
54.8226
54.8201
54.8175
54.815
54.8124
54.8099
54.8073
54.8048
54.8022
54.7997
54.7971
54.7946
54.792
54.7895
54.7869
54.7844
54.7819
54.7793
54.7768
54.7742
54.7717
54.7691
54.7666
54.764
54.7615
54.759
54.7564
54.7539
54.7513
54.7488
54.7462
54.7437
54.7412
54.7386
54.7361
54.7335
54.731
54.7285
54.7259
54.7234
54.7209
54.7183
54.7158
54.7132
54.7107
54.7082
54.7056
54.7031
54.7006
54.698
54.6955
54.693
54.6904
54.6879
54.6854
54.6828
54.6803
54.6778
54.6752
54.6727
54.6702
54.6677
54.6651
54.6626
54.6601
54.6575
54.655
54.6525
54.65
54.6474
54.6449
54.6424
54.6398
54.6373
54.6348
54.6323
54.6297
54.6272
54.6247
54.6222
54.6197
54.6171
54.6146
54.6121
54.6096
54.607
54.6045
54.602
54.5995
54.597
54.5944
54.5919
54.5894
54.5869
54.5844
54.5819
54.5793
54.5768
54.5743
54.5718
54.5693
54.5668
54.5642
54.5617
54.5592
54.5567
54.5542
54.5517
54.5492
54.5467
54.5441
54.5416
54.5391
54.5366
54.5341
54.5316
54.5291
54.5266
54.5241
54.5216
54.519
54.5165
54.514
54.5115
54.509
54.5065
54.504
54.5015
54.499
54.4965
54.494
54.4915
54.489
54.4865
54.484
54.4815
54.479
54.4765
54.474
54.4715
54.469
54.4665
54.464
54.4615
54.459
54.4565
54.454
54.4515
54.449
54.4465
54.444
54.4415
54.439
54.4365
54.434
54.4315
54.429
54.4265
54.424
54.4215
54.419
54.4165
54.414
54.4115
54.409
54.4065
54.4041
54.4016
54.3991
54.3966
54.3941
54.3916
54.3891
54.3866
54.3841
54.3816
54.3792
54.3767
54.3742
54.3717
54.3692
54.3667
54.3642
54.3618
54.3593
54.3568
54.3543
54.3518
54.3493
54.3469
54.3444
54.3419
54.3394
54.3369
54.3344
54.332
54.3295
54.327
54.3245
54.322
54.3196
54.3171
54.3146
54.3121
54.3096
54.3072
54.3047
54.3022
54.2997
54.2973
54.2948
54.2923
54.2898
54.2874
54.2849
54.2824
54.2799
54.2775
54.275
54.2725
54.2701
54.2676
54.2651
54.2626
54.2602
54.2577
54.2552
54.2528
54.2503
54.2478
54.2454
54.2429
54.2404
54.238
54.2355
54.233
54.2306
54.2281
54.2256
54.2232
54.2207
54.2182
54.2158
54.2133
54.2108
54.2084
54.2059
54.2034
54.201
54.1985
54.1961
54.1936
54.1911
54.1887
54.1862
54.1838
54.1813
54.1788
54.1764
54.1739
54.1715
54.169
54.1666
54.1641
54.1616
54.1592
54.1567
54.1543
54.1518
54.1494
54.1469
54.1445
54.142
54.1396
54.1371
54.1347
54.1322
54.1297
54.1273
54.1248
54.1224
54.1199
54.1175
54.115
54.1126
54.1102
54.1077
54.1053
54.1028
54.1004
54.0979
54.0955
54.093
54.0906
54.0881
54.0857
54.0832
54.0808
54.0784
54.0759
54.0735
54.071
54.0686
54.0661
54.0637
54.0613
54.0588
54.0564
54.0539
54.0515
54.0491
54.0466
54.0442
54.0417
54.0393
54.0369
54.0344
54.032
54.0296
54.0271
54.0247
54.0222
54.0198
54.0174
54.0149
54.0125
54.0101
54.0076
54.0052
54.0028
54.0003
53.9979
53.9955
53.993
53.9906
53.9882
53.9858
53.9833
53.9809
53.9785
53.976
53.9736
53.9712
53.9688
53.9663
53.9639
53.9615
53.959
53.9566
53.9542
53.9518
53.9493
53.9469
53.9445
53.9421
53.9396
53.9372
53.9348
53.9324
53.93
53.9275
53.9251
53.9227
53.9203
53.9179
53.9154
53.913
53.9106
53.9082
53.9058
53.9033
53.9009
53.8985
53.8961
53.8937
53.8913
53.8888
53.8864
53.884
53.8816
53.8792
53.8768
53.8744
53.8719
53.8695
53.8671
53.8647
53.8623
53.8599
53.8575
53.8551
53.8526
53.8502
53.8478
53.8454
53.843
53.8406
53.8382
53.8358
53.8334
53.831
53.8286
53.8262
53.8237
53.8213
53.8189
53.8165
53.8141
53.8117
53.8093
53.8069
53.8045
53.8021
53.7997
53.7973
53.7949
53.7925
53.7901
53.7877
53.7853
53.7829
53.7805
53.7781
53.7757
53.7733
53.7709
53.7685
53.7661
53.7637
53.7613
53.7589
53.7565
53.7541
53.7517
53.7493
53.7469
53.7445
53.7421
53.7397
53.7374
53.735
53.7326
53.7302
53.7278
53.7254
53.723
53.7206
53.7182
53.7158
53.7134
53.7111
53.7087
53.7063
53.7039
53.7015
53.6991
53.6967
53.6943
53.6919
53.6896
53.6872
53.6848
53.6824
53.68
53.6776
53.6753
53.6729
53.6705
53.6681
53.6657
53.6633
53.661
53.6586
53.6562
53.6538
53.6514
53.649
53.6467
53.6443
53.6419
53.6395
53.6372
53.6348
53.6324
53.63
53.6276
53.6253
53.6229
53.6205
53.6181
53.6158
53.6134
53.611
53.6086
53.6063
53.6039
53.6015
53.5991
53.5968
53.5944
53.592
53.5897
53.5873
53.5849
53.5825
53.5802
53.5778
53.5754
53.5731
53.5707
53.5683
53.566
53.5636
53.5612
53.5589
53.5565
53.5541
53.5518
53.5494
53.547
53.5447
53.5423
53.5399
53.5376
53.5352
53.5328
53.5305
53.5281
53.5258
53.5234
53.521
53.5187
53.5163
53.514
53.5116
53.5092
53.5069
53.5045
53.5022
53.4998
53.4974
53.4951
53.4927
53.4904
53.488
53.4857
53.4833
53.481
53.4786
53.4762
53.4739
53.4715
53.4692
53.4668
53.4645
53.4621
53.4598
53.4574
53.4551
53.4527
53.4504
53.448
53.4457
53.4433
53.441
53.4386
53.4363
53.4339
53.4316
53.4292
53.4269
53.4245
53.4222
53.4198
53.4175
53.4152
53.4128
53.4105
53.4081
53.4058
53.4034
53.4011
53.3987
53.3964
53.3941
53.3917
53.3894
53.387
53.3847
53.3824
53.38
53.3777
53.3753
53.373
53.3707
53.3683
53.366
53.3636
53.3613
53.359
53.3566
53.3543
53.352
53.3496
53.3473
53.345
53.3426
53.3403
53.338
53.3356
53.3333
53.331
53.3286
53.3263
53.324
53.3216
53.3193
53.317
53.3146
53.3123
53.31
53.3077
53.3053
53.303
53.3007
53.2983
53.296
53.2937
53.2914
53.289
53.2867
53.2844
53.2821
53.2797
53.2774
53.2751
53.2728
53.2704
53.2681
53.2658
53.2635
53.2611
53.2588
53.2565
53.2542
53.2519
53.2495
53.2472
53.2449
53.2426
53.2403
53.2379
53.2356
53.2333
53.231
53.2287
53.2264
53.224
53.2217
53.2194
53.2171
53.2148
53.2125
53.2101
53.2078
53.2055
53.2032
53.2009
53.1986
53.1963
53.194
53.1916
53.1893
53.187
53.1847
53.1824
53.1801
53.1778
53.1755
53.1732
53.1709
53.1685
53.1662
53.1639
53.1616
53.1593
53.157
53.1547
53.1524
53.1501
53.1478
53.1455
53.1432
53.1409
53.1386
53.1363
53.134
53.1317
53.1294
53.1271
53.1248
53.1225
53.1202
53.1179
53.1156
53.1133
53.111
53.1087
53.1064
53.1041
53.1018
53.0995
53.0972
53.0949
53.0926
53.0903
53.088
53.0857
53.0834
53.0811
53.0788
53.0765
53.0742
53.0719
53.0696
53.0673
53.065
53.0628
53.0605
53.0582
53.0559
53.0536
53.0513
53.049
53.0467
53.0444
53.0421
53.0399
53.0376
53.0353
53.033
53.0307
53.0284
53.0261
53.0238
53.0216
53.0193
53.017
53.0147
53.0124
53.0101
53.0079
53.0056
53.0033
53.001
52.9987
52.9964
52.9942
52.9919
52.9896
52.9873
52.985
52.9828
52.9805
52.9782
52.9759
52.9736
52.9714
52.9691
52.9668
52.9645
52.9623
52.96
52.9577
52.9554
52.9531
52.9509
52.9486
52.9463
52.9441
52.9418
52.9395
52.9372
52.935
52.9327
52.9304
52.9281
52.9259
52.9236
52.9213
52.9191
52.9168
52.9145
52.9123
52.91
52.9077
52.9054
52.9032
52.9009
52.8986
52.8964
52.8941
52.8918
52.8896
52.8873
52.8851
52.8828
52.8805
52.8783
52.876
52.8737
52.8715
52.8692
52.8669
52.8647
52.8624
52.8602
52.8579
52.8556
52.8534
52.8511
52.8489
52.8466
52.8443
52.8421
52.8398
52.8376
52.8353
52.8331
52.8308
52.8285
52.8263
52.824
52.8218
52.8195
52.8173
52.815
52.8128
52.8105
52.8083
52.806
52.8037
52.8015
52.7992
52.797
52.7947
52.7925
52.7902
52.788
52.7857
52.7835
52.7812
52.779
52.7767
52.7745
52.7723
52.77
52.7678
52.7655
52.7633
52.761
52.7588
52.7565
52.7543
52.752
52.7498
52.7476
52.7453
52.7431
52.7408
52.7386
52.7363
52.7341
52.7319
52.7296
52.7274
52.7251
52.7229
52.7207
52.7184
52.7162
52.7139
52.7117
52.7095
52.7072
52.705
52.7027
52.7005
52.6983
52.696
52.6938
52.6916
52.6893
52.6871
52.6849
52.6826
52.6804
52.6782
52.6759
52.6737
52.6715
52.6692
52.667
52.6648
52.6625
52.6603
52.6581
52.6559
52.6536
52.6514
52.6492
52.6469
52.6447
52.6425
52.6403
52.638
52.6358
52.6336
52.6314
52.6291
52.6269
52.6247
52.6225
52.6202
52.618
52.6158
52.6136
52.6113
52.6091
52.6069
52.6047
52.6024
52.6002
52.598
52.5958
52.5936
52.5913
52.5891
52.5869
52.5847
52.5825
52.5803
52.578
52.5758
52.5736
52.5714
52.5692
52.567
52.5647
52.5625
52.5603
52.5581
52.5559
52.5537
52.5514
52.5492
52.547
52.5448
52.5426
52.5404
52.5382
52.536
52.5338
52.5315
52.5293
52.5271
52.5249
52.5227
52.5205
52.5183
52.5161
52.5139
52.5117
52.5095
52.5073
52.505
52.5028
52.5006
52.4984
52.4962
52.494
52.4918
52.4896
52.4874
52.4852
52.483
52.4808
52.4786
52.4764
52.4742
52.472
52.4698
52.4676
52.4654
52.4632
52.461
52.4588
52.4566
52.4544
52.4522
52.45
52.4478
52.4456
52.4434
52.4412
52.439
52.4368
52.4346
52.4324
52.4302
52.428
52.4258
52.4237
52.4215
52.4193
52.4171
52.4149
52.4127
52.4105
52.4083
52.4061
52.4039
52.4017
52.3995
52.3974
52.3952
52.393
52.3908
52.3886
52.3864
52.3842
52.382
52.3799
52.3777
52.3755
52.3733
52.3711
52.3689
52.3667
52.3646
52.3624
52.3602
52.358
52.3558
52.3536
52.3515
52.3493
52.3471
52.3449
52.3427
52.3406
52.3384
52.3362
52.334
52.3318
52.3297
52.3275
52.3253
52.3231
52.3209
52.3188
52.3166
52.3144
52.3122
52.3101
52.3079
52.3057
52.3035
52.3014
52.2992
52.297
52.2948
52.2927
52.2905
52.2883
52.2861
52.284
52.2818
52.2796
52.2775
52.2753
52.2731
52.271
52.2688
52.2666
52.2644
52.2623
52.2601
52.2579
52.2558
52.2536
52.2514
52.2493
52.2471
52.2449
52.2428
52.2406
52.2384
52.2363
52.2341
52.232
52.2298
52.2276
52.2255
52.2233
52.2211
52.219
52.2168
52.2147
52.2125
52.2103
52.2082
52.206
52.2039
52.2017
52.1995
52.1974
52.1952
52.1931
52.1909
52.1888
52.1866
52.1844
52.1823
52.1801
52.178
52.1758
52.1737
52.1715
52.1694
52.1672
52.1651
52.1629
52.1607
52.1586
52.1564
52.1543
52.1521
52.15
52.1478
52.1457
52.1435
52.1414
52.1392
52.1371
52.1349
52.1328
52.1306
52.1285
52.1264
52.1242
52.1221
52.1199
52.1178
52.1156
52.1135
52.1113
52.1092
52.107
52.1049
52.1028
52.1006
52.0985
52.0963
52.0942
52.0921
52.0899
52.0878
52.0856
52.0835
52.0813
52.0792
52.0771
52.0749
52.0728
52.0707
52.0685
52.0664
52.0642
52.0621
52.06
52.0578
52.0557
52.0536
52.0514
52.0493
52.0472
52.045
52.0429
52.0408
52.0386
52.0365
52.0344
52.0322
52.0301
52.028
52.0258
52.0237
52.0216
52.0194
52.0173
52.0152
52.0131
52.0109
52.0088
52.0067
52.0045
52.0024
52.0003
51.9982
51.996
51.9939
51.9918
51.9897
51.9875
51.9854
51.9833
51.9812
51.979
51.9769
51.9748
51.9727
51.9705
51.9684
51.9663
51.9642
51.9621
51.9599
51.9578
51.9557
51.9536
51.9515
51.9493
51.9472
51.9451
51.943
51.9409
51.9387
51.9366
51.9345