# vtk DataFile Version 2.0
vtk output
ASCII
DATASET STRUCTURED_GRID
DIMENSIONS 50 10 30
POINTS 15000 float
0 0 0
1 0 0
2 0 0
3 0 0
4 0 0
5 0 0
6 0 0
7 0 0
8 0 0
9 0 0
10 0 0
11 0 0
12 0 0
13 0 0
14 0 0
15 0 0
16 0 0
17 0 0
18 0 0
19 0 0
20 0 0
21 0 0
22 0 0
23 0 0
24 0 0
25 0 0
26 0 0
27 0 0
28 0 0
29 0 0
30 0 0
31 0 0
32 0 0
33 0 0
34 0 0
35 0 0
36 0 0
37 0 0
38 0 0
39 0 0
40 0 0
41 0 0
42 0 0
43 0 0
44 0 0
45 0 0
46 0 0
47 0 0
48 0 0
49 0 0
0 1 0
1 1 0
2 1 0
3 1 0
4 1 0
5 1 0
6 1 0
7 1 0
8 1 0
9 1 0
10 1 0
11 1 0
12 1 0
13 1 0
14 1 0
15 1 0
16 1 0
17 1 0
18 1 0
19 1 0
20 1 0
21 1 0
22 1 0
23 1 0
24 1 0
25 1 0
26 1 0
27 1 0
28 1 0
29 1 0
30 1 0
31 1 0
32 1 0
33 1 0
34 1 0
35 1 0
36 1 0
37 1 0
38 1 0
39 1 0
40 1 0
41 1 0
42 1 0
43 1 0
44 1 0
45 1 0
46 1 0
47 1 0
48 1 0
49 1 0
0 2 0
1 2 0
2 2 0
3 2 0
4 2 0
5 2 0
6 2 0
7 2 0
8 2 0
9 2 0
10 2 0
11 2 0
12 2 0
13 2 0
14 2 0
15 2 0
16 2 0
17 2 0
18 2 0
19 2 0
20 2 0
21 2 0
22 2 0
23 2 0
24 2 0
25 2 0
26 2 0
27 2 0
28 2 0
29 2 0
30 2 0
31 2 0
32 2 0
33 2 0
34 2 0
35 2 0
36 2 0
37 2 0
38 2 0
39 2 0
40 2 0
41 2 0
42 2 0
43 2 0
44 2 0
45 2 0
46 2 0
47 2 0
48 2 0
49 2 0
0 3 0
1 3 0
2 3 0
3 3 0
4 3 0
5 3 0
6 3 0
7 3 0
8 3 0
9 3 0
10 3 0
11 3 0
12 3 0
13 3 0
14 3 0
15 3 0
16 3 0
17 3 0
18 3 0
19 3 0
20 3 0
21 3 0
22 3 0
23 3 0
24 3 0
25 3 0
26 3 0
27 3 0
28 3 0
29 3 0
30 3 0
31 3 0
32 3 0
33 3 0
34 3 0
35 3 0
36 3 0
37 3 0
38 3 0
39 3 0
40 3 0
41 3 0
42 3 0
43 3 0
44 3 0
45 3 0
46 3 0
47 3 0
48 3 0
49 3 0
0 4 0
1 4 0
2 4 0
3 4 0
4 4 0
5 4 0
6 4 0
7 4 0
8 4 0
9 4 0
10 4 0
11 4 0
12 4 0
13 4 0
14 4 0
15 4 0
16 4 0
17 4 0
18 4 0
19 4 0
20 4 0
21 4 0
22 4 0
23 4 0
24 4 0
25 4 0
26 4 0
27 4 0
28 4 0
29 4 0
30 4 0
31 4 0
32 4 0
33 4 0
34 4 0
35 4 0
36 4 0
37 4 0
38 4 0
39 4 0
40 4 0
41 4 0
42 4 0
43 4 0
44 4 0
45 4 0
46 4 0
47 4 0
48 4 0
49 4 0
0 5 0
1 5 0
2 5 0
3 5 0
4 5 0
5 5 0
6 5 0
7 5 0
8 5 0
9 5 0
10 5 0
11 5 0
12 5 0
13 5 0
14 5 0
15 5 0
16 5 0
17 5 0
18 5 0
19 5 0
20 5 0
21 5 0
22 5 0
23 5 0
24 5 0
25 5 0
26 5 0
27 5 0
28 5 0
29 5 0
30 5 0
31 5 0
32 5 0
33 5 0
34 5 0
35 5 0
36 5 0
37 5 0
38 5 0
39 5 0
40 5 0
41 5 0
42 5 0
43 5 0
44 5 0
45 5 0
46 5 0
47 5 0
48 5 0
49 5 0
0 6 0
1 6 0
2 6 0
3 6 0
4 6 0
5 6 0
6 6 0
7 6 0
8 6 0
9 6 0
10 6 0
11 6 0
12 6 0
13 6 0
14 6 0
15 6 0
16 6 0
17 6 0
18 6 0
19 6 0
20 6 0
21 6 0
22 6 0
23 6 0
24 6 0
25 6 0
26 6 0
27 6 0
28 6 0
29 6 0
30 6 0
31 6 0
32 6 0
33 6 0
34 6 0
35 6 0
36 6 0
37 6 0
38 6 0
39 6 0
40 6 0
41 6 0
42 6 0
43 6 0
44 6 0
45 6 0
46 6 0
47 6 0
48 6 0
49 6 0
0 7 0
1 7 0
2 7 0
3 7 0
4 7 0
5 7 0
6 7 0
7 7 0
8 7 0
9 7 0
10 7 0
11 7 0
12 7 0
13 7 0
14 7 0
15 7 0
16 7 0
17 7 0
18 7 0
19 7 0
20 7 0
21 7 0
22 7 0
23 7 0
24 7 0
25 7 0
26 7 0
27 7 0
28 7 0
29 7 0
30 7 0
31 7 0
32 7 0
33 7 0
34 7 0
35 7 0
36 7 0
37 7 0
38 7 0
39 7 0
40 7 0
41 7 0
42 7 0
43 7 0
44 7 0
45 7 0
46 7 0
47 7 0
48 7 0
49 7 0
0 8 0
1 8 0
2 8 0
3 8 0
4 8 0
5 8 0
6 8 0
7 8 0
8 8 0
9 8 0
10 8 0
11 8 0
12 8 0
13 8 0
14 8 0
15 8 0
16 8 0
17 8 0
18 8 0
19 8 0
20 8 0
21 8 0
22 8 0
23 8 0
24 8 0
25 8 0
26 8 0
27 8 0
28 8 0
29 8 0
30 8 0
31 8 0
32 8 0
33 8 0
34 8 0
35 8 0
36 8 0
37 8 0
38 8 0
39 8 0
40 8 0
41 8 0
42 8 0
43 8 0
44 8 0
45 8 0
46 8 0
47 8 0
48 8 0
49 8 0
0 9 0
1 9 0
2 9 0
3 9 0
4 9 0
5 9 0
6 9 0
7 9 0
8 9 0
9 9 0
10 9 0
11 9 0
12 9 0
13 9 0
14 9 0
15 9 0
16 9 0
17 9 0
18 9 0
19 9 0
20 9 0
21 9 0
22 9 0
23 9 0
24 9 0
25 9 0
26 9 0
27 9 0
28 9 0
29 9 0
30 9 0
31 9 0
32 9 0
33 9 0
34 9 0
35 9 0
36 9 0
37 9 0
38 9 0
39 9 0
40 9 0
41 9 0
42 9 0
43 9 0
44 9 0
45 9 0
46 9 0
47 9 0
48 9 0
49 9 0
0 0 1
1 0 1
2 0 1
3 0 1
4 0 1
5 0 1
6 0 1
7 0 1
8 0 1
9 0 1
10 0 1
11 0 1
12 0 1
13 0 1
14 0 1
15 0 1
16 0 1
17 0 1
18 0 1
19 0 1
20 0 1
21 0 1
22 0 1
23 0 1
24 0 1
25 0 1
26 0 1
27 0 1
28 0 1
29 0 1
30 0 1
31 0 1
32 0 1
33 0 1
34 0 1
35 0 1
36 0 1
37 0 1
38 0 1
39 0 1
40 0 1
41 0 1
42 0 1
43 0 1
44 0 1
45 0 1
46 0 1
47 0 1
48 0 1
49 0 1
0 1 1
1 1 1
2 1 1
3 1 1
4 1 1
5 1 1
6 1 1
7 1 1
8 1 1
9 1 1
10 1 1
11 1 1
12 1 1
13 1 1
14 1 1
15 1 1
16 1 1
17 1 1
18 1 1
19 1 1
20 1 1
21 1 1
22 1 1
23 1 1
24 1 1
25 1 1
26 1 1
27 1 1
28 1 1
29 1 1
30 1 1
31 1 1
32 1 1
33 1 1
34 1 1
35 1 1
36 1 1
37 1 1
38 1 1
39 1 1
40 1 1
41 1 1
42 1 1
43 1 1
44 1 1
45 1 1
46 1 1
47 1 1
48 1 1
49 1 1
0 2 1
1 2 1
2 2 1
3 2 1
4 2 1
5 2 1
6 2 1
7 2 1
8 2 1
9 2 1
10 2 1
11 2 1
12 2 1
13 2 1
14 2 1
15 2 1
16 2 1
17 2 1
18 2 1
19 2 1
20 2 1
21 2 1
22 2 1
23 2 1
24 2 1
25 2 1
26 2 1
27 2 1
28 2 1
29 2 1
30 2 1
31 2 1
32 2 1
33 2 1
34 2 1
35 2 1
36 2 1
37 2 1
38 2 1
39 2 1
40 2 1
41 2 1
42 2 1
43 2 1
44 2 1
45 2 1
46 2 1
47 2 1
48 2 1
49 2 1
0 3 1
1 3 1
2 3 1
3 3 1
4 3 1
5 3 1
6 3 1
7 3 1
8 3 1
9 3 1
10 3 1
11 3 1
12 3 1
13 3 1
14 3 1
15 3 1
16 3 1
17 3 1
18 3 1
19 3 1
20 3 1
21 3 1
22 3 1
23 3 1
24 3 1
25 3 1
26 3 1
27 3 1
28 3 1
29 3 1
30 3 1
31 3 1
32 3 1
33 3 1
34 3 1
35 3 1
36 3 1
37 3 1
38 3 1
39 3 1
40 3 1
41 3 1
42 3 1
43 3 1
44 3 1
45 3 1
46 3 1
47 3 1
48 3 1
49 3 1
0 4 1
1 4 1
2 4 1
3 4 1
4 4 1
5 4 1
6 4 1
7 4 1
8 4 1
9 4 1
10 4 1
11 4 1
12 4 1
13 4 1
14 4 1
15 4 1
16 4 1
17 4 1
18 4 1
19 4 1
20 4 1
21 4 1
22 4 1
23 4 1
24 4 1
25 4 1
26 4 1
27 4 1
28 4 1
29 4 1
30 4 1
31 4 1
32 4 1
33 4 1
34 4 1
35 4 1
36 4 1
37 4 1
38 4 1
39 4 1
40 4 1
41 4 1
42 4 1
43 4 1
44 4 1
45 4 1
46 4 1
47 4 1
48 4 1
49 4 1
0 5 1
1 5 1
2 5 1
3 5 1
4 5 1
5 5 1
6 5 1
7 5 1
8 5 1
9 5 1
10 5 1
11 5 1
12 5 1
13 5 1
14 5 1
15 5 1
16 5 1
17 5 1
18 5 1
19 5 1
20 5 1
21 5 1
22 5 1
23 5 1
24 5 1
25 5 1
26 5 1
27 5 1
28 5 1
29 5 1
30 5 1
31 5 1
32 5 1
33 5 1
34 5 1
35 5 1
36 5 1
37 5 1
38 5 1
39 5 1
40 5 1
41 5 1
42 5 1
43 5 1
44 5 1
45 5 1
46 5 1
47 5 1
48 5 1
49 5 1
0 6 1
1 6 1
2 6 1
3 6 1
4 6 1
5 6 1
6 6 1
7 6 1
8 6 1
9 6 1
10 6 1
11 6 1
12 6 1
13 6 1
14 6 1
15 6 1
16 6 1
17 6 1
18 6 1
19 6 1
20 6 1
21 6 1
22 6 1
23 6 1
24 6 1
25 6 1
26 6 1
27 6 1
28 6 1
29 6 1
30 6 1
31 6 1
32 6 1
33 6 1
34 6 1
35 6 1
36 6 1
37 6 1
38 6 1
39 6 1
40 6 1
41 6 1
42 6 1
43 6 1
44 6 1
45 6 1
46 6 1
47 6 1
48 6 1
49 6 1
0 7 1
1 7 1
2 7 1
3 7 1
4 7 1
5 7 1
6 7 1
7 7 1
8 7 1
9 7 1
10 7 1
11 7 1
12 7 1
13 7 1
14 7 1
15 7 1
16 7 1
17 7 1
18 7 1
19 7 1
20 7 1
21 7 1
22 7 1
23 7 1
24 7 1
25 7 1
26 7 1
27 7 1
28 7 1
29 7 1
30 7 1
31 7 1
32 7 1
33 7 1
34 7 1
35 7 1
36 7 1
37 7 1
38 7 1
39 7 1
40 7 1
41 7 1
42 7 1
43 7 1
44 7 1
45 7 1
46 7 1
47 7 1
48 7 1
49 7 1
0 8 1
1 8 1
2 8 1
3 8 1
4 8 1
5 8 1
6 8 1
7 8 1
8 8 1
9 8 1
10 8 1
11 8 1
12 8 1
13 8 1
14 8 1
15 8 1
16 8 1
17 8 1
18 8 1
19 8 1
20 8 1
21 8 1
22 8 1
23 8 1
24 8 1
25 8 1
26 8 1
27 8 1
28 8 1
29 8 1
30 8 1
31 8 1
32 8 1
33 8 1
34 8 1
35 8 1
36 8 1
37 8 1
38 8 1
39 8 1
40 8 1
41 8 1
42 8 1
43 8 1
44 8 1
45 8 1
46 8 1
47 8 1
48 8 1
49 8 1
0 9 1
1 9 1
2 9 1
3 9 1
4 9 1
5 9 1
6 9 1
7 9 1
8 9 1
9 9 1
10 9 1
11 9 1
12 9 1
13 9 1
14 9 1
15 9 1
16 9 1
17 9 1
18 9 1
19 9 1
20 9 1
21 9 1
22 9 1
23 9 1
24 9 1
25 9 1
26 9 1
27 9 1
28 9 1
29 9 1
30 9 1
31 9 1
32 9 1
33 9 1
34 9 1
35 9 1
36 9 1
37 9 1
38 9 1
39 9 1
40 9 1
41 9 1
42 9 1
43 9 1
44 9 1
45 9 1
46 9 1
47 9 1
48 9 1
49 9 1
0 0 2
1 0 2
2 0 2
3 0 2
4 0 2
5 0 2
6 0 2
7 0 2
8 0 2
9 0 2
10 0 2
11 0 2
12 0 2
13 0 2
14 0 2
15 0 2
16 0 2
17 0 2
18 0 2
19 0 2
20 0 2
21 0 2
22 0 2
23 0 2
24 0 2
25 0 2
26 0 2
27 0 2
28 0 2
29 0 2
30 0 2
31 0 2
32 0 2
33 0 2
34 0 2
35 0 2
36 0 2
37 0 2
38 0 2
39 0 2
40 0 2
41 0 2
42 0 2
43 0 2
44 0 2
45 0 2
46 0 2
47 0 2
48 0 2
49 0 2
0 1 2
1 1 2
2 1 2
3 1 2
4 1 2
5 1 2
6 1 2
7 1 2
8 1 2
9 1 2
10 1 2
11 1 2
12 1 2
13 1 2
14 1 2
15 1 2
16 1 2
17 1 2
18 1 2
19 1 2
20 1 2
21 1 2
22 1 2
23 1 2
24 1 2
25 1 2
26 1 2
27 1 2
28 1 2
29 1 2
30 1 2
31 1 2
32 1 2
33 1 2
34 1 2
35 1 2
36 1 2
37 1 2
38 1 2
39 1 2
40 1 2
41 1 2
42 1 2
43 1 2
44 1 2
45 1 2
46 1 2
47 1 2
48 1 2
49 1 2
0 2 2
1 2 2
2 2 2
3 2 2
4 2 2
5 2 2
6 2 2
7 2 2
8 2 2
9 2 2
10 2 2
11 2 2
12 2 2
13 2 2
14 2 2
15 2 2
16 2 2
17 2 2
18 2 2
19 2 2
20 2 2
21 2 2
22 2 2
23 2 2
24 2 2
25 2 2
26 2 2
27 2 2
28 2 2
29 2 2
30 2 2
31 2 2
32 2 2
33 2 2
34 2 2
35 2 2
36 2 2
37 2 2
38 2 2
39 2 2
40 2 2
41 2 2
42 2 2
43 2 2
44 2 2
45 2 2
46 2 2
47 2 2
48 2 2
49 2 2
0 3 2
1 3 2
2 3 2
3 3 2
4 3 2
5 3 2
6 3 2
7 3 2
8 3 2
9 3 2
10 3 2
11 3 2
12 3 2
13 3 2
14 3 2
15 3 2
16 3 2
17 3 2
18 3 2
19 3 2
20 3 2
21 3 2
22 3 2
23 3 2
24 3 2
25 3 2
26 3 2
27 3 2
28 3 2
29 3 2
30 3 2
31 3 2
32 3 2
33 3 2
34 3 2
35 3 2
36 3 2
37 3 2
38 3 2
39 3 2
40 3 2
41 3 2
42 3 2
43 3 2
44 3 2
45 3 2
46 3 2
47 3 2
48 3 2
49 3 2
0 4 2
1 4 2
2 4 2
3 4 2
4 4 2
5 4 2
6 4 2
7 4 2
8 4 2
9 4 2
10 4 2
11 4 2
12 4 2
13 4 2
14 4 2
15 4 2
16 4 2
17 4 2
18 4 2
19 4 2
20 4 2
21 4 2
22 4 2
23 4 2
24 4 2
25 4 2
26 4 2
27 4 2
28 4 2
29 4 2
30 4 2
31 4 2
32 4 2
33 4 2
34 4 2
35 4 2
36 4 2
37 4 2
38 4 2
39 4 2
40 4 2
41 4 2
42 4 2
43 4 2
44 4 2
45 4 2
46 4 2
47 4 2
48 4 2
49 4 2
0 5 2
1 5 2
2 5 2
3 5 2
4 5 2
5 5 2
6 5 2
7 5 2
8 5 2
9 5 2
10 5 2
11 5 2
12 5 2
13 5 2
14 5 2
15 5 2
16 5 2
17 5 2
18 5 2
19 5 2
20 5 2
21 5 2
22 5 2
23 5 2
24 5 2
25 5 2
26 5 2
27 5 2
28 5 2
29 5 2
30 5 2
31 5 2
32 5 2
33 5 2
34 5 2
35 5 2
36 5 2
37 5 2
38 5 2
39 5 2
40 5 2
41 5 2
42 5 2
43 5 2
44 5 2
45 5 2
46 5 2
47 5 2
48 5 2
49 5 2
0 6 2
1 6 2
2 6 2
3 6 2
4 6 2
5 6 2
6 6 2
7 6 2
8 6 2
9 6 2
10 6 2
11 6 2
12 6 2
13 6 2
14 6 2
15 6 2
16 6 2
17 6 2
18 6 2
19 6 2
20 6 2
21 6 2
22 6 2
23 6 2
24 6 2
25 6 2
26 6 2
27 6 2
28 6 2
29 6 2
30 6 2
31 6 2
32 6 2
33 6 2
34 6 2
35 6 2
36 6 2
37 6 2
38 6 2
39 6 2
40 6 2
41 6 2
42 6 2
43 6 2
44 6 2
45 6 2
46 6 2
47 6 2
48 6 2
49 6 2
0 7 2
1 7 2
2 7 2
3 7 2
4 7 2
5 7 2
6 7 2
7 7 2
8 7 2
9 7 2
10 7 2
11 7 2
12 7 2
13 7 2
14 7 2
15 7 2
16 7 2
17 7 2
18 7 2
19 7 2
20 7 2
21 7 2
22 7 2
23 7 2
24 7 2
25 7 2
26 7 2
27 7 2
28 7 2
29 7 2
30 7 2
31 7 2
32 7 2
33 7 2
34 7 2
35 7 2
36 7 2
37 7 2
38 7 2
39 7 2
40 7 2
41 7 2
42 7 2
43 7 2
44 7 2
45 7 2
46 7 2
47 7 2
48 7 2
49 7 2
0 8 2
1 8 2
2 8 2
3 8 2
4 8 2
5 8 2
6 8 2
7 8 2
8 8 2
9 8 2
10 8 2
11 8 2
12 8 2
13 8 2
14 8 2
15 8 2
16 8 2
17 8 2
18 8 2
19 8 2
20 8 2
21 8 2
22 8 2
23 8 2
24 8 2
25 8 2
26 8 2
27 8 2
28 8 2
29 8 2
30 8 2
31 8 2
32 8 2
33 8 2
34 8 2
35 8 2
36 8 2
37 8 2
38 8 2
39 8 2
40 8 2
41 8 2
42 8 2
43 8 2
44 8 2
45 8 2
46 8 2
47 8 2
48 8 2
49 8 2
0 9 2
1 9 2
2 9 2
3 9 2
4 9 2
[...]
POINT_DATA 15000
SCALARS sol194 float
LOOKUP_TABLE default
57.9672
57.9641
57.9611
57.9581
57.955
57.952
57.9489
57.9459
57.9428
57.9398
57.9367
57.9337
57.9306
57.9276
57.9245
57.9215
57.9185
57.9154
57.9124
57.9093
57.9063
57.9033
57.9002
57.8972
57.8941
57.8911
57.8881
57.885
57.882
57.8789
57.8759
57.8729
57.8698
57.8668
57.8638
57.8607
57.8577
57.8547
57.8516
57.8486
57.8456
57.8425
57.8395
57.8365
57.8334
57.8304
57.8274
57.8243
57.8213
57.8183
57.8153
57.8122
57.8092
57.8062
57.8031
57.8001
57.7971
57.7941
57.791
57.788
57.785
57.782
57.7789
57.7759
57.7729
57.7699
57.7668
57.7638
57.7608
57.7578
57.7548
57.7517
57.7487
57.7457
57.7427
57.7397
57.7366
57.7336
57.7306
57.7276
57.7246
57.7216
57.7185
57.7155
57.7125
57.7095
57.7065
57.7035
57.7005
57.6974
57.6944
57.6914
57.6884
57.6854
57.6824
57.6794
57.6764
57.6733
57.6703
57.6673
57.6643
57.6613
57.6583
57.6553
57.6523
57.6493
57.6463
57.6433
57.6403
57.6373
57.6343
57.6312
57.6282
57.6252
57.6222
57.6192
57.6162
57.6132
57.6102
57.6072
57.6042
57.6012
57.5982
57.5952
57.5922
57.5892
57.5862
57.5832
57.5802
57.5772
57.5742
57.5712
57.5682
57.5653
57.5623
57.5593
57.5563
57.5533
57.5503
57.5473
57.5443
57.5413
57.5383
57.5353
57.5323
57.5293
57.5263
57.5234
57.5204
57.5174
57.5144
57.5114
57.5084
57.5054
57.5024
57.4995
57.4965
57.4935
57.4905
57.4875
57.4845
57.4815
57.4786
57.4756
57.4726
57.4696
57.4666
57.4636
57.4607
57.4577
57.4547
57.4517
57.4487
57.4458
57.4428
57.4398
57.4368
57.4338
57.4309
57.4279
57.4249
57.4219
57.419
57.416
57.413
57.41
57.4071
57.4041
57.4011
57.3981
57.3952
57.3922
57.3892
57.3863
57.3833
57.3803
57.3773
57.3744
57.3714
57.3684
57.3655
57.3625
57.3595
57.3566
57.3536
57.3506
57.3477
57.3447
57.3417
57.3388
57.3358
57.3328
57.3299
57.3269
57.3239
57.321
57.318
57.3151
57.3121
57.3091
57.3062
57.3032
57.3002
57.2973
57.2943
57.2914
57.2884
57.2855
57.2825
57.2795
57.2766
57.2736
57.2707
57.2677
57.2648
57.2618
57.2588
57.2559
57.2529
57.25
57.247
57.2441
57.2411
57.2382
57.2352
57.2323
57.2293
57.2264
57.2234
57.2205
57.2175
57.2146
57.2116
57.2087
57.2057
57.2028
57.1998
57.1969
57.194
57.191
57.1881
57.1851
57.1822
57.1792
57.1763
57.1733
57.1704
57.1675
57.1645
57.1616
57.1586
57.1557
57.1528
57.1498
57.1469
57.1439
57.141
57.1381
57.1351
57.1322
57.1292
57.1263
57.1234
57.1204
57.1175
57.1146
57.1116
57.1087
57.1058
57.1028
57.0999
57.097
57.094
57.0911
57.0882
57.0852
57.0823
57.0794
57.0764
57.0735
57.0706
57.0677
57.0647
57.0618
57.0589
57.056
57.053
57.0501
57.0472
57.0442
57.0413
57.0384
57.0355
57.0325
57.0296
57.0267
57.0238
57.0209
57.0179
57.015
57.0121
57.0092
57.0063
57.0033
57.0004
56.9975
56.9946
56.9917
56.9887
56.9858
56.9829
56.98
56.9771
56.9742
56.9712
56.9683
56.9654
56.9625
56.9596
56.9567
56.9538
56.9508
56.9479
56.945
56.9421
56.9392
56.9363
56.9334
56.9305
56.9276
56.9246
56.9217
56.9188
56.9159
56.913
56.9101
56.9072
56.9043
56.9014
56.8985
56.8956
56.8927
56.8898
56.8869
56.884
56.881
56.8781
56.8752
56.8723
56.8694
56.8665
56.8636
56.8607
56.8578
56.8549
56.852
56.8491
56.8462
56.8433
56.8404
56.8375
56.8346
56.8318
56.8289
56.826
56.8231
56.8202
56.8173
56.8144
56.8115
56.8086
56.8057
56.8028
56.7999
56.797
56.7941
56.7912
56.7883
56.7855
56.7826
56.7797
56.7768
56.7739
56.771
56.7681
56.7652
56.7623
56.7595
56.7566
56.7537
56.7508
56.7479
56.745
56.7421
56.7393
56.7364
56.7335
56.7306
56.7277
56.7249
56.722
56.7191
56.7162
56.7133
56.7104
56.7076
56.7047
56.7018
56.6989
56.6961
56.6932
56.6903
56.6874
56.6845
56.6817
56.6788
56.6759
56.673
56.6702
56.6673
56.6644
56.6615
56.6587
56.6558
56.6529
56.6501
56.6472
56.6443
56.6414
56.6386
56.6357
56.6328
56.63
56.6271
56.6242
56.6214
56.6185
56.6156
56.6128
56.6099
56.607
56.6042
56.6013
56.5984
56.5956
56.5927
56.5898
56.587
56.5841
56.5812
56.5784
56.5755
56.5727
56.5698
56.5669
56.5641
56.5612
56.5584
56.5555
56.5526
56.5498
56.5469
56.5441
56.5412
56.5383
56.5355
56.5326
56.5298
56.5269
56.5241
56.5212
56.5184
56.5155
56.5127
56.5098
56.5069
56.5041
56.5012
56.4984
56.4955
56.4927
56.4898
56.487
56.4841
56.4813
56.4784
56.4756
56.4728
56.4699
56.4671
56.4642
56.4614
56.4585
56.4557
56.4528
56.45
56.4471
56.4443
56.4415
56.4386
56.4358
56.4329
56.4301
56.4272
56.4244
56.4216
56.4187
56.4159
56.413
56.4102
56.4074
56.4045
56.4017
56.3988
56.396
56.3932
56.3903
56.3875
56.3847
56.3818
56.379
56.3762
56.3733
56.3705
56.3677
56.3648
56.362
56.3592
56.3563
56.3535
56.3507
56.3478
56.345
56.3422
56.3393
56.3365
56.3337
56.3309
56.328
56.3252
56.3224
56.3195
56.3167
56.3139
56.3111
56.3082
56.3054
56.3026
56.2998
56.2969
56.2941
56.2913
56.2885
56.2857
56.2828
56.28
56.2772
56.2744
56.2716
56.2687
56.2659
56.2631
56.2603
56.2575
56.2546
56.2518
56.249
56.2462
56.2434
56.2406
56.2377
56.2349
56.2321
56.2293
56.2265
56.2237
56.2209
56.218
56.2152
56.2124
56.2096
56.2068
56.204
56.2012
56.1984
56.1956
56.1927
56.1899
56.1871
56.1843
56.1815
56.1787
56.1759
56.1731
56.1703
56.1675
56.1647
56.1619
56.1591
56.1563
56.1535
56.1506
56.1478
56.145
56.1422
56.1394
56.1366
56.1338
56.131
56.1282
56.1254
56.1226
56.1198
56.117
56.1142
56.1114
56.1086
56.1058
56.103
56.1002
56.0975
56.0947
56.0919
56.0891
56.0863
56.0835
56.0807
56.0779
56.0751
56.0723
56.0695
56.0667
56.0639
56.0611
56.0583
56.0556
56.0528
56.05
56.0472
56.0444
56.0416
56.0388
56.036
56.0332
56.0305
56.0277
56.0249
56.0221
56.0193
56.0165
56.0137
56.011
56.0082
56.0054
56.0026
55.9998
55.997
55.9943
55.9915
55.9887
55.9859
55.9831
55.9804
55.9776
55.9748
55.972
55.9692
55.9665
55.9637
55.9609
55.9581
55.9554
55.9526
55.9498
55.947
55.9443
55.9415
55.9387
55.9359
55.9332
55.9304
55.9276
55.9248
55.9221
55.9193
55.9165
55.9138
55.911
55.9082
55.9054
55.9027
55.8999
55.8971
55.8944
55.8916
55.8888
55.8861
55.8833
55.8805
55.8778
55.875
55.8722
55.8695
55.8667
55.8639
55.8612
55.8584
55.8557
55.8529
55.8501
55.8474
55.8446
55.8418
55.8391
55.8363
55.8336
55.8308
55.828
55.8253
55.8225
55.8198
55.817
55.8143
55.8115
55.8087
55.806
55.8032
55.8005
55.7977
55.795
55.7922
55.7895
55.7867
55.784
55.7812
55.7784
55.7757
55.7729
55.7702
55.7674
55.7647
55.7619
55.7592
55.7564
55.7537
55.7509
55.7482
55.7455
55.7427
55.74
55.7372
55.7345
55.7317
55.729
55.7262
55.7235
55.7207
55.718
55.7153
55.7125
55.7098
55.707
55.7043
55.7015
55.6988
55.6961
55.6933
55.6906
55.6878
55.6851
55.6824
55.6796
55.6769
55.6741
55.6714
55.6687
55.6659
55.6632
55.6605
55.6577
55.655
55.6523
55.6495
55.6468
55.6441
55.6413
55.6386
55.6359
55.6331
55.6304
55.6277
55.6249
55.6222
55.6195
55.6167
55.614
55.6113
55.6086
55.6058
55.6031
55.6004
55.5977
55.5949
55.5922
55.5895
55.5867
55.584
55.5813
55.5786
55.5758
55.5731
55.5704
55.5677
55.565
55.5622
55.5595
55.5568
55.5541
55.5514
55.5486
55.5459
55.5432
55.5405
55.5378
55.535
55.5323
55.5296
55.5269
55.5242
55.5215
55.5187
55.516
55.5133
55.5106
55.5079
55.5052
55.5024
55.4997
55.497
55.4943
55.4916
55.4889
55.4862
55.4835
55.4808
55.478
55.4753
55.4726
55.4699
55.4672
55.4645
55.4618
55.4591
55.4564
55.4537
55.451
55.4483
55.4455
55.4428
55.4401
55.4374
55.4347
55.432
55.4293
55.4266
55.4239
55.4212
55.4185
55.4158
55.4131
55.4104
55.4077
55.405
55.4023
55.3996
55.3969
55.3942
55.3915
55.3888
55.3861
55.3834
55.3807
55.378
55.3753
55.3726
55.3699
55.3672
55.3646
55.3619
55.3592
55.3565
55.3538
55.3511
55.3484
55.3457
55.343
55.3403
55.3376
55.3349
55.3322
55.3296
55.3269
55.3242
55.3215
55.3188
55.3161
55.3134
55.3107
55.3081
55.3054
55.3027
55.3
55.2973
55.2946
55.2919
55.2893
55.2866
55.2839
55.2812
55.2785
55.2758
55.2732
55.2705
55.2678
55.2651
55.2624
55.2598
55.2571
55.2544
55.2517
55.2491
55.2464
55.2437
55.241
55.2383
55.2357
55.233
55.2303
55.2276
55.225
55.2223
55.2196
55.2169
55.2143
55.2116
55.2089
55.2063
55.2036
55.2009
55.1982
55.1956
55.1929
55.1902
55.1876
55.1849
55.1822
55.1796
55.1769
55.1742
55.1715
55.1689
55.1662
55.1635
55.1609
55.1582
55.1556
55.1529
55.1502
55.1476
55.1449
55.1422
55.1396
55.1369
55.1342
55.1316
55.1289
55.1263
55.1236
55.1209
55.1183
55.1156
55.113
55.1103
55.1076
55.105
55.1023
55.0997
55.097
55.0944
55.0917
55.089
55.0864
55.0837
55.0811
55.0784
55.0758
55.0731
55.0705
55.0678
55.0652
55.0625
55.0599
55.0572
55.0546
55.0519
55.0493
55.0466
55.044
55.0413
55.0387
55.036
55.0334
55.0307
55.0281
55.0254
55.0228
55.0201
55.0175
55.0148
55.0122
55.0096
55.0069
55.0043
55.0016
54.999
54.9963
54.9937
54.9911
54.9884
54.9858
54.9831
54.9805
54.9779
54.9752
54.9726
54.9699
54.9673
54.9647
54.962
54.9594
54.9567
54.9541
54.9515
54.9488
54.9462
54.9436
54.9409
54.9383
54.9357
54.933
54.9304
54.9278
54.9251
54.9225
54.9199
54.9172
54.9146
54.912
54.9093
54.9067
54.9041
54.9015
54.8988
54.8962
54.8936
54.8909
54.8883
54.8857
54.8831
54.8804
54.8778
54.8752
54.8726
54.8699
54.8673
54.8647
54.8621
54.8594
54.8568
54.8542
54.8516
54.849
54.8463
54.8437
54.8411
54.8385
54.8359
54.8332
54.8306
54.828
54.8254
54.8228
54.8201
54.8175
54.8149
54.8123
54.8097
54.8071
54.8044
54.8018
54.7992
54.7966
54.794
54.7914
54.7888
54.7861
54.7835
54.7809
54.7783
54.7757
54.7731
54.7705
54.7679
54.7653
54.7627
54.76
54.7574
54.7548
54.7522
54.7496
54.747
54.7444
54.7418
54.7392
54.7366
54.734
54.7314
54.7288
54.7262
54.7236
54.721
54.7183
54.7157
54.7131
54.7105
54.7079
54.7053
54.7027
54.7001
54.6975
54.6949
54.6923
54.6897
54.6871
54.6845
54.6819
54.6793
54.6768
54.6742
54.6716
54.669
54.6664
54.6638
54.6612
54.6586
54.656
54.6534
54.6508
54.6482
54.6456
54.643
54.6404
54.6378
54.6352
54.6327
54.6301
54.6275
54.6249
54.6223
54.6197
54.6171
54.6145
54.6119
54.6094
54.6068
54.6042
54.6016
54.599
54.5964
54.5938
54.5913
54.5887
54.5861
54.5835
54.5809
54.5783
54.5758
54.5732
54.5706
54.568
54.5654
54.5628
54.5603
54.5577
54.5551
54.5525
54.5499
54.5474
54.5448
54.5422
54.5396
54.5371
54.5345
54.5319
54.5293
54.5268
54.5242
54.5216
54.519
54.5165
54.5139
54.5113
54.5087
54.5062
54.5036
54.501
54.4984
54.4959
54.4933
54.4907
54.4882
54.4856
54.483
54.4805
54.4779
54.4753
54.4727
54.4702
54.4676
54.465
54.4625
54.4599
54.4573
54.4548
54.4522
54.4497
54.4471
54.4445
54.442
54.4394
54.4368
54.4343
54.4317
54.4292
54.4266
54.424
54.4215
54.4189
54.4163
54.4138
54.4112
54.4087
54.4061
54.4036
54.401
54.3984
54.3959
54.3933
54.3908
54.3882
54.3857
54.3831
54.3805
54.378
54.3754
54.3729
54.3703
54.3678
54.3652
54.3627
54.3601
54.3576
54.355
54.3525
54.3499
54.3474
54.3448
54.3423
54.3397
54.3372
54.3346
54.3321
54.3295
54.327
54.3244
54.3219
54.3193
54.3168
54.3143
54.3117
54.3092
54.3066
54.3041
54.3015
54.299
54.2965
54.2939
54.2914
54.2888
54.2863
54.2837
54.2812
54.2787
54.2761
54.2736
54.271
54.2685
54.266
54.2634
54.2609
54.2584
54.2558
54.2533
54.2507
54.2482
54.2457
54.2431
54.2406
54.2381
54.2355
54.233
54.2305
54.2279
54.2254
54.2229
54.2203
54.2178
54.2153
54.2128
54.2102
54.2077
54.2052
54.2026
54.2001
54.1976
54.195
54.1925
54.19
54.1875
54.1849
54.1824
54.1799
54.1774
54.1748
54.1723
54.1698
54.1673
54.1647
54.1622
54.1597
54.1572
54.1547
54.1521
54.1496
54.1471
54.1446
54.142
54.1395
54.137
54.1345
54.132
54.1295
54.1269
54.1244
54.1219
54.1194
54.1169
54.1143
54.1118
54.1093
54.1068
54.1043
54.1018
54.0993
54.0967
54.0942
54.0917
54.0892
54.0867
54.0842
54.0817
54.0792
54.0766
54.0741
54.0716
54.0691
54.0666
54.0641
54.0616
54.0591
54.0566
54.0541
54.0516
54.0491
54.0465
54.044
54.0415
54.039
54.0365
54.034
54.0315
54.029
54.0265
54.024
54.0215
54.019
54.0165
54.014
54.0115
54.009
54.0065
54.004
54.0015
53.999
53.9965
53.994
53.9915
53.989
53.9865
53.984
53.9815
53.979
53.9765
53.974
53.9715
53.969
53.9665
53.964
53.9615
53.9591
53.9566
53.9541
53.9516
53.9491
53.9466
53.9441
53.9416
53.9391
53.9366
53.9341
53.9316
53.9292
53.9267
53.9242
53.9217
53.9192
53.9167
53.9142
53.9117
53.9093
53.9068
53.9043
53.9018
53.8993
53.8968
53.8943
53.8919
53.8894
53.8869
53.8844
53.8819
53.8794
53.877
53.8745
53.872
53.8695
53.867
53.8646
53.8621
53.8596
53.8571
53.8546
53.8522
53.8497
53.8472
53.8447
53.8423
53.8398
53.8373
53.8348
53.8324
53.8299
53.8274
53.8249
53.8225
53.82
53.8175
53.815
53.8126
53.8101
53.8076
53.8052
53.8027
53.8002
53.7977
53.7953
53.7928
53.7903
53.7879
53.7854
53.7829
53.7805
53.778
53.7755
53.7731
53.7706
53.7681
53.7657
53.7632
53.7607
53.7583
53.7558
53.7533
53.7509
53.7484
53.746
53.7435
53.741
53.7386
53.7361
53.7336
53.7312
53.7287
53.7263
53.7238
53.7213
53.7189
53.7164
53.714
53.7115
53.7091
53.7066
53.7041
53.7017
53.6992
53.6968
53.6943
53.6919
53.6894
53.687
53.6845
53.6821
53.6796
53.6771
53.6747
53.6722
53.6698
53.6673
53.6649
53.6624
53.66
53.6575
53.6551
53.6526
53.6502
53.6477
53.6453
53.6428
53.6404
53.638
53.6355
53.6331
53.6306
53.6282
53.6257
53.6233
53.6208
53.6184
53.616
53.6135
53.6111
53.6086
53.6062
53.6037
53.6013
53.5989
53.5964
53.594
53.5915
53.5891
53.5867
53.5842
53.5818
53.5793
53.5769
53.5745
53.572
53.5696
53.5672
53.5647
53.5623
53.5598
53.5574
53.555
53.5525
53.5501
53.5477
53.5452
53.5428
53.5404
53.5379
53.5355
53.5331
53.5307
53.5282
53.5258
53.5234
53.5209
53.5185
53.5161
53.5136
53.5112
53.5088
53.5064
53.5039
53.5015
53.4991
53.4967
53.4942
53.4918
53.4894
53.487
53.4845
53.4821
53.4797
53.4773
53.4748
53.4724
53.47
53.4676
53.4652
53.4627
53.4603
53.4579
53.4555
53.4531
53.4506
53.4482
53.4458
53.4434
53.441
53.4385
53.4361
53.4337
53.4313
53.4289
53.4265
53.424
53.4216
53.4192
53.4168
53.4144
53.412
53.4096
53.4072
53.4047
53.4023
53.3999
53.3975
53.3951
53.3927
53.3903
53.3879
53.3855
53.383
53.3806
53.3782
53.3758
53.3734
53.371
53.3686
53.3662
53.3638
53.3614
53.359
53.3566
53.3542
53.3518
53.3494
53.347
53.3445
53.3421
53.3397
53.3373
53.3349
53.3325
53.3301
53.3277
53.3253
53.3229
53.3205
53.3181
53.3157
53.3133
53.3109
53.3085
53.3061
53.3037
53.3013
53.299
53.2966
53.2942
53.2918
53.2894
53.287
53.2846
53.2822
53.2798
53.2774
53.275
53.2726
53.2702
53.2678
53.2654
53.263
53.2607
53.2583
53.2559
53.2535
53.2511
53.2487
53.2463
53.2439
53.2415
53.2392
53.2368
53.2344
53.232
53.2296
53.2272
53.2248
53.2224
53.2201
53.2177
53.2153
53.2129
53.2105
53.2081
53.2058
53.2034
53.201
53.1986
53.1962
53.1939
53.1915
53.1891
53.1867
53.1843
53.182
53.1796
53.1772
53.1748
53.1724
53.1701
53.1677
53.1653
53.1629
53.1606
53.1582
53.1558
53.1534
53.1511
53.1487
53.1463
53.1439
53.1416
53.1392
53.1368
53.1344
53.1321
53.1297
53.1273
53.125
53.1226
53.1202
53.1178
53.1155
53.1131
53.1107
53.1084
53.106
53.1036
53.1013
53.0989
53.0965
53.0942
53.0918
53.0894
53.0871
53.0847
53.0823
53.08
53.0776
53.0753
53.0729
53.0705
53.0682
53.0658
53.0634
53.0611
53.0587
53.0564
53.054
53.0516
53.0493
53.0469
53.0446
53.0422
53.0398
53.0375
53.0351
53.0328
53.0304
53.0281
53.0257
53.0234
53.021
53.0186
53.0163
53.0139
53.0116
53.0092
53.0069
53.0045
53.0022
52.9998
52.9975
52.9951
52.9928
52.9904
52.9881
52.9857
52.9834
52.981
52.9787
52.9763
52.974
52.9716
52.9693
52.9669
52.9646
52.9622
52.9599
52.9575
52.9552
52.9529
52.9505
52.9482
52.9458
52.9435
52.9411
52.9388
52.9364
52.9341
52.9318
52.9294
52.9271
52.9247
52.9224
52.9201
52.9177
52.9154
52.913
52.9107
52.9084
52.906
52.9037
52.9014
52.899
52.8967
52.8943
52.892
52.8897
52.8873
52.885
52.8827
52.8803
52.878
52.8757
52.8733
52.871
52.8687
52.8663
52.864
52.8617
52.8593
52.857
52.8547
52.8524
52.85
52.8477
52.8454
52.843
52.8407
52.8384
52.8361
52.8337
52.8314
52.8291
52.8267
52.8244
52.8221
52.8198
52.8174
52.8151
52.8128
52.8105
52.8082
52.8058
52.8035
52.8012
52.7989
52.7965
52.7942
52.7919
52.7896
52.7873
52.7849
52.7826
52.7803
52.778
52.7757
52.7733
52.771
52.7687
52.7664
52.7641
52.7618
52.7594
52.7571
52.7548
52.7525
52.7502
52.7479
52.7456
52.7432
52.7409
52.7386
52.7363
52.734
52.7317
52.7294
52.7271
52.7248
52.7224
52.7201
52.7178
52.7155
52.7132
52.7109
52.7086
52.7063
52.704
52.7017
52.6994
52.6971
52.6947
52.6924
52.6901
52.6878
52.6855
52.6832
52.6809
52.6786
52.6763
52.674
52.6717
52.6694
52.6671
52.6648
52.6625
52.6602
52.6579
52.6556
52.6533
52.651
52.6487
52.6464
52.6441
52.6418
52.6395
52.6372
52.6349
52.6326
52.6303
52.628
52.6257
52.6234
52.6211
52.6188
52.6166
52.6143
52.612
52.6097
52.6074
52.6051
52.6028
52.6005
52.5982
52.5959
52.5936
52.5913
52.5891
52.5868
52.5845
52.5822
52.5799
52.5776
52.5753
52.573
52.5707
52.5685
52.5662
52.5639
52.5616
52.5593
52.557
52.5547
52.5525
52.5502
52.5479
52.5456
52.5433
52.541
52.5388
52.5365
52.5342
52.5319
52.5296
52.5274
52.5251
52.5228
52.5205
52.5182
52.516
52.5137
52.5114
52.5091
52.5068
52.5046
52.5023
52.5
52.4977
52.4955
52.4932
52.4909
52.4886
52.4864
52.4841
52.4818
52.4795
52.4773
52.475
52.4727
52.4705
52.4682
52.4659
52.4636
52.4614
52.4591
52.4568
52.4546
52.4523
52.45
52.4478
52.4455
52.4432
52.441
52.4387
52.4364
52.4342
52.4319
52.4296
52.4274
52.4251
52.4228
52.4206
52.4183
52.416
52.4138
52.4115
52.4092
52.407
52.4047
52.4025
52.4002
52.3979
52.3957
52.3934
52.3912
52.3889
52.3866
52.3844
52.3821
52.3799
52.3776
52.3754
52.3731
52.3708
52.3686
52.3663
52.3641
52.3618
52.3596
52.3573
52.3551
52.3528
52.3505
52.3483
52.346
52.3438
52.3415
52.3393
52.337
52.3348
52.3325
52.3303
52.328
52.3258
52.3235
52.3213
52.319
52.3168
52.3145
52.3123
52.31
52.3078
52.3056
52.3033
52.3011
52.2988
52.2966
52.2943
52.2921
52.2898
52.2876
52.2853
52.2831
52.2809
52.2786
52.2764
52.2741
52.2719
52.2697
52.2674
52.2652
52.2629
52.2607
52.2585
52.2562
52.254
52.2517
52.2495
52.2473
52.245
52.2428
52.2406
52.2383
52.2361
52.2338
52.2316
52.2294
52.2271
52.2249
52.2227
52.2204
52.2182
52.216
52.2137
52.2115
52.2093
52.207
52.2048
52.2026
52.2004
52.1981
52.1959
52.1937
52.1914
52.1892
52.187
52.1848
52.1825
52.1803
52.1781
52.1758
52.1736
52.1714
52.1692
52.1669
52.1647
52.1625
52.1603
52.158
52.1558
52.1536
52.1514
52.1492
52.1469
52.1447
52.1425
52.1403
52.138
52.1358
52.1336
52.1314
52.1292
52.1269
52.1247
52.1225
52.1203
52.1181
52.1159
52.1136
52.1114
52.1092
52.107
52.1048
52.1026
52.1003
52.0981
52.0959
52.0937
52.0915
52.0893
52.0871
52.0849
52.0826
52.0804
52.0782
52.076
52.0738
52.0716
52.0694
52.0672
52.065
52.0627
52.0605
52.0583
52.0561
52.0539
52.0517
52.0495
52.0473
52.0451
52.0429
52.0407
52.0385
52.0363
52.0341
52.0319
52.0297
52.0274
52.0252
52.023
52.0208
52.0186
52.0164
52.0142
52.012
52.0098
52.0076
52.0054
52.0032
52.001
51.9988
51.9966
51.9944
51.9922
51.99
51.9878
51.9856
51.9835
51.9813
51.9791
51.9769
51.9747
51.9725
51.9703
51.9681
51.9659
51.9637
51.9615
51.9593
51.9571
51.9549
51.9527
51.9505
51.9484
51.9462
51.944
51.9418
51.9396
51.9374
51.9352
51.933
51.9308
51.9286
51.9265
51.9243
51.9221
51.9199
51.9177
51.9155
51.9133
51.9112
51.909
51.9068
51.9046
51.9024
51.9002
51.898
51.8959
51.8937
51.8915
51.8893
51.8871
51.885
51.8828
51.8806
51.8784
51.8762
51.8741
51.8719
51.8697
51.8675
51.8653
51.8632
51.861
51.8588
51.8566
51.8545
51.8523
51.8501
51.8479
51.8457
51.8436
51.8414
51.8392
51.8371
51.8349
51.8327
51.8305
51.8284
51.8262
51.824
51.8218
51.8197
51.8175
51.8153
51.8132
51.811
51.8088
51.8067
51.8045
51.8023
51.8001
51.798
51.7958
51.7936
51.7915
51.7893
51.7871
51.785
51.7828
51.7807
51.7785
51.7763
51.7742
51.772
51.7698
51.7677
51.7655
51.7633
51.7612
51.759
51.7569
51.7547
51.7525
51.7504
51.7482
51.7461
51.7439
51.7417
51.7396
51.7374
51.7353
51.7331
51.731
51.7288
51.7266
51.7245
51.7223
51.7202
51.718
51.7159
51.7137
51.7116
51.7094
51.7072
51.7051
51.7029
51.7008
51.6986
51.6965
51.6943
51.6922
51.69
51.6879
51.6857
51.6836
51.6814
51.6793
51.6771
51.675
51.6728
51.6707
51.6685
51.6664
51.6643
51.6621
51.66
51.6578
51.6557
51.6535
51.6514
51.6492
51.6471
51.6449
51.6428
51.6407
51.6385
51.6364
51.6342
51.6321
51.63
51.6278
51.6257
51.6235
51.6214
51.6192
51.6171
51.615
51.6128
51.6107
51.6086
51.6064
51.6043
51.6021
51.6
51.5979
51.5957
51.5936
51.5915
51.5893
51.5872
51.5851
51.5829
51.5808
51.5787
51.5765
51.5744
51.5723
51.5701
51.568
51.5659
51.5637
51.5616
51.5595
51.5574
51.5552
51.5531
51.551
51.5488
51.5467
51.5446
51.5425
51.5403
51.5382
51.5361
51.5339
51.5318
51.5297
51.5276
51.5254
51.5233
51.5212
51.5191
51.517
51.5148
51.5127
51.5106
51.5085
51.5063
51.5042
51.5021
51.5
51.4979
51.4957
51.4936
51.4915
51.4894
51.4873
51.4851
51.483
51.4809
51.4788
51.4767