# vtk DataFile Version 2.0
vtk output
ASCII
DATASET STRUCTURED_GRID
DIMENSIONS 50 10 30
POINTS 15000 float
0 0 0
1 0 0
2 0 0
3 0 0
4 0 0
5 0 0
6 0 0
7 0 0
8 0 0
9 0 0
10 0 0
11 0 0
12 0 0
13 0 0
14 0 0
15 0 0
16 0 0
17 0 0
18 0 0
19 0 0
20 0 0
21 0 0
22 0 0
23 0 0
24 0 0
25 0 0
26 0 0
27 0 0
28 0 0
29 0 0
30 0 0
31 0 0
32 0 0
33 0 0
34 0 0
35 0 0
36 0 0
37 0 0
38 0 0
39 0 0
40 0 0
41 0 0
42 0 0
43 0 0
44 0 0
45 0 0
46 0 0
47 0 0
48 0 0
49 0 0
0 1 0
1 1 0
2 1 0
3 1 0
4 1 0
5 1 0
6 1 0
7 1 0
8 1 0
9 1 0
10 1 0
11 1 0
12 1 0
13 1 0
14 1 0
15 1 0
16 1 0
17 1 0
18 1 0
19 1 0
20 1 0
21 1 0
22 1 0
23 1 0
24 1 0
25 1 0
26 1 0
27 1 0
28 1 0
29 1 0
30 1 0
31 1 0
32 1 0
33 1 0
34 1 0
35 1 0
36 1 0
37 1 0
38 1 0
39 1 0
40 1 0
41 1 0
42 1 0
43 1 0
44 1 0
45 1 0
46 1 0
47 1 0
48 1 0
49 1 0
0 2 0
1 2 0
2 2 0
3 2 0
4 2 0
5 2 0
6 2 0
7 2 0
8 2 0
9 2 0
10 2 0
11 2 0
12 2 0
13 2 0
14 2 0
15 2 0
16 2 0
17 2 0
18 2 0
19 2 0
20 2 0
21 2 0
22 2 0
23 2 0
24 2 0
25 2 0
26 2 0
27 2 0
28 2 0
29 2 0
30 2 0
31 2 0
32 2 0
33 2 0
34 2 0
35 2 0
36 2 0
37 2 0
38 2 0
39 2 0
40 2 0
41 2 0
42 2 0
43 2 0
44 2 0
45 2 0
46 2 0
47 2 0
48 2 0
49 2 0
0 3 0
1 3 0
2 3 0
3 3 0
4 3 0
5 3 0
6 3 0
7 3 0
8 3 0
9 3 0
10 3 0
11 3 0
12 3 0
13 3 0
14 3 0
15 3 0
16 3 0
17 3 0
18 3 0
19 3 0
20 3 0
21 3 0
22 3 0
23 3 0
24 3 0
25 3 0
26 3 0
27 3 0
28 3 0
29 3 0
30 3 0
31 3 0
32 3 0
33 3 0
34 3 0
35 3 0
36 3 0
37 3 0
38 3 0
39 3 0
40 3 0
41 3 0
42 3 0
43 3 0
44 3 0
45 3 0
46 3 0
47 3 0
48 3 0
49 3 0
0 4 0
1 4 0
2 4 0
3 4 0
4 4 0
5 4 0
6 4 0
7 4 0
8 4 0
9 4 0
10 4 0
11 4 0
12 4 0
13 4 0
14 4 0
15 4 0
16 4 0
17 4 0
18 4 0
19 4 0
20 4 0
21 4 0
22 4 0
23 4 0
24 4 0
25 4 0
26 4 0
27 4 0
28 4 0
29 4 0
30 4 0
31 4 0
32 4 0
33 4 0
34 4 0
35 4 0
36 4 0
37 4 0
38 4 0
39 4 0
40 4 0
41 4 0
42 4 0
43 4 0
44 4 0
45 4 0
46 4 0
47 4 0
48 4 0
49 4 0
0 5 0
1 5 0
2 5 0
3 5 0
4 5 0
5 5 0
6 5 0
7 5 0
8 5 0
9 5 0
10 5 0
11 5 0
12 5 0
13 5 0
14 5 0
15 5 0
16 5 0
17 5 0
18 5 0
19 5 0
20 5 0
21 5 0
22 5 0
23 5 0
24 5 0
25 5 0
26 5 0
27 5 0
28 5 0
29 5 0
30 5 0
31 5 0
32 5 0
33 5 0
34 5 0
35 5 0
36 5 0
37 5 0
38 5 0
39 5 0
40 5 0
41 5 0
42 5 0
43 5 0
44 5 0
45 5 0
46 5 0
47 5 0
48 5 0
49 5 0
0 6 0
1 6 0
2 6 0
3 6 0
4 6 0
5 6 0
6 6 0
7 6 0
8 6 0
9 6 0
10 6 0
11 6 0
12 6 0
13 6 0
14 6 0
15 6 0
16 6 0
17 6 0
18 6 0
19 6 0
20 6 0
21 6 0
22 6 0
23 6 0
24 6 0
25 6 0
26 6 0
27 6 0
28 6 0
29 6 0
30 6 0
31 6 0
32 6 0
33 6 0
34 6 0
35 6 0
36 6 0
37 6 0
38 6 0
39 6 0
40 6 0
41 6 0
42 6 0
43 6 0
44 6 0
45 6 0
46 6 0
47 6 0
48 6 0
49 6 0
0 7 0
1 7 0
2 7 0
3 7 0
4 7 0
5 7 0
6 7 0
7 7 0
8 7 0
9 7 0
10 7 0
11 7 0
12 7 0
13 7 0
14 7 0
15 7 0
16 7 0
17 7 0
18 7 0
19 7 0
20 7 0
21 7 0
22 7 0
23 7 0
24 7 0
25 7 0
26 7 0
27 7 0
28 7 0
29 7 0
30 7 0
31 7 0
32 7 0
33 7 0
34 7 0
35 7 0
36 7 0
37 7 0
38 7 0
39 7 0
40 7 0
41 7 0
42 7 0
43 7 0
44 7 0
45 7 0
46 7 0
47 7 0
48 7 0
49 7 0
0 8 0
1 8 0
2 8 0
3 8 0
4 8 0
5 8 0
6 8 0
7 8 0
8 8 0
9 8 0
10 8 0
11 8 0
12 8 0
13 8 0
14 8 0
15 8 0
16 8 0
17 8 0
18 8 0
19 8 0
20 8 0
21 8 0
22 8 0
23 8 0
24 8 0
25 8 0
26 8 0
27 8 0
28 8 0
29 8 0
30 8 0
31 8 0
32 8 0
33 8 0
34 8 0
35 8 0
36 8 0
37 8 0
38 8 0
39 8 0
40 8 0
41 8 0
42 8 0
43 8 0
44 8 0
45 8 0
46 8 0
47 8 0
48 8 0
49 8 0
0 9 0
1 9 0
2 9 0
3 9 0
4 9 0
5 9 0
6 9 0
7 9 0
8 9 0
9 9 0
10 9 0
11 9 0
12 9 0
13 9 0
14 9 0
15 9 0
16 9 0
17 9 0
18 9 0
19 9 0
20 9 0
21 9 0
22 9 0
23 9 0
24 9 0
25 9 0
26 9 0
27 9 0
28 9 0
29 9 0
30 9 0
31 9 0
32 9 0
33 9 0
34 9 0
35 9 0
36 9 0
37 9 0
38 9 0
39 9 0
40 9 0
41 9 0
42 9 0
43 9 0
44 9 0
45 9 0
46 9 0
47 9 0
48 9 0
49 9 0
0 0 1
1 0 1
2 0 1
3 0 1
4 0 1
5 0 1
6 0 1
7 0 1
8 0 1
9 0 1
10 0 1
11 0 1
12 0 1
13 0 1
14 0 1
15 0 1
16 0 1
17 0 1
18 0 1
19 0 1
20 0 1
21 0 1
22 0 1
23 0 1
24 0 1
25 0 1
26 0 1
27 0 1
28 0 1
29 0 1
30 0 1
31 0 1
32 0 1
33 0 1
34 0 1
35 0 1
36 0 1
37 0 1
38 0 1
39 0 1
40 0 1
41 0 1
42 0 1
43 0 1
44 0 1
45 0 1
46 0 1
47 0 1
48 0 1
49 0 1
0 1 1
1 1 1
2 1 1
3 1 1
4 1 1
5 1 1
6 1 1
7 1 1
8 1 1
9 1 1
10 1 1
11 1 1
12 1 1
13 1 1
14 1 1
15 1 1
16 1 1
17 1 1
18 1 1
19 1 1
20 1 1
21 1 1
22 1 1
23 1 1
24 1 1
25 1 1
26 1 1
27 1 1
28 1 1
29 1 1
30 1 1
31 1 1
32 1 1
33 1 1
34 1 1
35 1 1
36 1 1
37 1 1
38 1 1
39 1 1
40 1 1
41 1 1
42 1 1
43 1 1
44 1 1
45 1 1
46 1 1
47 1 1
48 1 1
49 1 1
0 2 1
1 2 1
2 2 1
3 2 1
4 2 1
5 2 1
6 2 1
7 2 1
8 2 1
9 2 1
10 2 1
11 2 1
12 2 1
13 2 1
14 2 1
15 2 1
16 2 1
17 2 1
18 2 1
19 2 1
20 2 1
21 2 1
22 2 1
23 2 1
24 2 1
25 2 1
26 2 1
27 2 1
28 2 1
29 2 1
30 2 1
31 2 1
32 2 1
33 2 1
34 2 1
35 2 1
36 2 1
37 2 1
38 2 1
39 2 1
40 2 1
41 2 1
42 2 1
43 2 1
44 2 1
45 2 1
46 2 1
47 2 1
48 2 1
49 2 1
0 3 1
1 3 1
2 3 1
3 3 1
4 3 1
5 3 1
6 3 1
7 3 1
8 3 1
9 3 1
10 3 1
11 3 1
12 3 1
13 3 1
14 3 1
15 3 1
16 3 1
17 3 1
18 3 1
19 3 1
20 3 1
21 3 1
22 3 1
23 3 1
24 3 1
25 3 1
26 3 1
27 3 1
28 3 1
29 3 1
30 3 1
31 3 1
32 3 1
33 3 1
34 3 1
35 3 1
36 3 1
37 3 1
38 3 1
39 3 1
40 3 1
41 3 1
42 3 1
43 3 1
44 3 1
45 3 1
46 3 1
47 3 1
48 3 1
49 3 1
0 4 1
1 4 1
2 4 1
3 4 1
4 4 1
5 4 1
6 4 1
7 4 1
8 4 1
9 4 1
10 4 1
11 4 1
12 4 1
13 4 1
14 4 1
15 4 1
16 4 1
17 4 1
18 4 1
19 4 1
20 4 1
21 4 1
22 4 1
23 4 1
24 4 1
25 4 1
26 4 1
27 4 1
28 4 1
29 4 1
30 4 1
31 4 1
32 4 1
33 4 1
34 4 1
35 4 1
36 4 1
37 4 1
38 4 1
39 4 1
40 4 1
41 4 1
42 4 1
43 4 1
44 4 1
45 4 1
46 4 1
47 4 1
48 4 1
49 4 1
0 5 1
1 5 1
2 5 1
3 5 1
4 5 1
5 5 1
6 5 1
7 5 1
8 5 1
9 5 1
10 5 1
11 5 1
12 5 1
13 5 1
14 5 1
15 5 1
16 5 1
17 5 1
18 5 1
19 5 1
20 5 1
21 5 1
22 5 1
23 5 1
24 5 1
25 5 1
26 5 1
27 5 1
28 5 1
29 5 1
30 5 1
31 5 1
32 5 1
33 5 1
34 5 1
35 5 1
36 5 1
37 5 1
38 5 1
39 5 1
40 5 1
41 5 1
42 5 1
43 5 1
44 5 1
45 5 1
46 5 1
47 5 1
48 5 1
49 5 1
0 6 1
1 6 1
2 6 1
3 6 1
4 6 1
5 6 1
6 6 1
7 6 1
8 6 1
9 6 1
10 6 1
11 6 1
12 6 1
13 6 1
14 6 1
15 6 1
16 6 1
17 6 1
18 6 1
19 6 1
20 6 1
21 6 1
22 6 1
23 6 1
24 6 1
25 6 1
26 6 1
27 6 1
28 6 1
29 6 1
30 6 1
31 6 1
32 6 1
33 6 1
34 6 1
35 6 1
36 6 1
37 6 1
38 6 1
39 6 1
40 6 1
41 6 1
42 6 1
43 6 1
44 6 1
45 6 1
46 6 1
47 6 1
48 6 1
49 6 1
0 7 1
1 7 1
2 7 1
3 7 1
4 7 1
5 7 1
6 7 1
7 7 1
8 7 1
9 7 1
10 7 1
11 7 1
12 7 1
13 7 1
14 7 1
15 7 1
16 7 1
17 7 1
18 7 1
19 7 1
20 7 1
21 7 1
22 7 1
23 7 1
24 7 1
25 7 1
26 7 1
27 7 1
28 7 1
29 7 1
30 7 1
31 7 1
32 7 1
33 7 1
34 7 1
35 7 1
36 7 1
37 7 1
38 7 1
39 7 1
40 7 1
41 7 1
42 7 1
43 7 1
44 7 1
45 7 1
46 7 1
47 7 1
48 7 1
49 7 1
0 8 1
1 8 1
2 8 1
3 8 1
4 8 1
5 8 1
6 8 1
7 8 1
8 8 1
9 8 1
10 8 1
11 8 1
12 8 1
13 8 1
14 8 1
15 8 1
16 8 1
17 8 1
18 8 1
19 8 1
20 8 1
21 8 1
22 8 1
23 8 1
24 8 1
25 8 1
26 8 1
27 8 1
28 8 1
29 8 1
30 8 1
31 8 1
32 8 1
33 8 1
34 8 1
35 8 1
36 8 1
37 8 1
38 8 1
39 8 1
40 8 1
41 8 1
42 8 1
43 8 1
44 8 1
45 8 1
46 8 1
47 8 1
48 8 1
49 8 1
0 9 1
1 9 1
2 9 1
3 9 1
4 9 1
5 9 1
6 9 1
7 9 1
8 9 1
9 9 1
10 9 1
11 9 1
12 9 1
13 9 1
14 9 1
15 9 1
16 9 1
17 9 1
18 9 1
19 9 1
20 9 1
21 9 1
22 9 1
23 9 1
24 9 1
25 9 1
26 9 1
27 9 1
28 9 1
29 9 1
30 9 1
31 9 1
32 9 1
33 9 1
34 9 1
35 9 1
36 9 1
37 9 1
38 9 1
39 9 1
40 9 1
41 9 1
42 9 1
43 9 1
44 9 1
45 9 1
46 9 1
47 9 1
48 9 1
49 9 1
0 0 2
1 0 2
2 0 2
3 0 2
4 0 2
5 0 2
6 0 2
7 0 2
8 0 2
9 0 2
10 0 2
11 0 2
12 0 2
13 0 2
14 0 2
15 0 2
16 0 2
17 0 2
18 0 2
19 0 2
20 0 2
21 0 2
22 0 2
23 0 2
24 0 2
25 0 2
26 0 2
27 0 2
28 0 2
29 0 2
30 0 2
31 0 2
32 0 2
33 0 2
34 0 2
35 0 2
36 0 2
37 0 2
38 0 2
39 0 2
40 0 2
41 0 2
42 0 2
43 0 2
44 0 2
45 0 2
46 0 2
47 0 2
48 0 2
49 0 2
0 1 2
1 1 2
2 1 2
3 1 2
4 1 2
5 1 2
6 1 2
7 1 2
8 1 2
9 1 2
10 1 2
11 1 2
12 1 2
13 1 2
14 1 2
15 1 2
16 1 2
17 1 2
18 1 2
19 1 2
20 1 2
21 1 2
22 1 2
23 1 2
24 1 2
25 1 2
26 1 2
27 1 2
28 1 2
29 1 2
30 1 2
31 1 2
32 1 2
33 1 2
34 1 2
35 1 2
36 1 2
37 1 2
38 1 2
39 1 2
40 1 2
41 1 2
42 1 2
43 1 2
44 1 2
45 1 2
46 1 2
47 1 2
48 1 2
49 1 2
0 2 2
1 2 2
2 2 2
3 2 2
4 2 2
5 2 2
6 2 2
7 2 2
8 2 2
9 2 2
10 2 2
11 2 2
12 2 2
13 2 2
14 2 2
15 2 2
16 2 2
17 2 2
18 2 2
19 2 2
20 2 2
21 2 2
22 2 2
23 2 2
24 2 2
25 2 2
26 2 2
27 2 2
28 2 2
29 2 2
30 2 2
31 2 2
32 2 2
33 2 2
34 2 2
35 2 2
36 2 2
37 2 2
38 2 2
39 2 2
40 2 2
41 2 2
42 2 2
43 2 2
44 2 2
45 2 2
46 2 2
47 2 2
48 2 2
49 2 2
0 3 2
1 3 2
2 3 2
3 3 2
4 3 2
5 3 2
6 3 2
7 3 2
8 3 2
9 3 2
10 3 2
11 3 2
12 3 2
13 3 2
14 3 2
15 3 2
16 3 2
17 3 2
18 3 2
19 3 2
20 3 2
21 3 2
22 3 2
23 3 2
24 3 2
25 3 2
26 3 2
27 3 2
28 3 2
29 3 2
30 3 2
31 3 2
32 3 2
33 3 2
34 3 2
35 3 2
36 3 2
37 3 2
38 3 2
39 3 2
40 3 2
41 3 2
42 3 2
43 3 2
44 3 2
45 3 2
46 3 2
47 3 2
48 3 2
49 3 2
0 4 2
1 4 2
2 4 2
3 4 2
4 4 2
5 4 2
6 4 2
7 4 2
8 4 2
9 4 2
10 4 2
11 4 2
12 4 2
13 4 2
14 4 2
15 4 2
16 4 2
17 4 2
18 4 2
19 4 2
20 4 2
21 4 2
22 4 2
23 4 2
24 4 2
25 4 2
26 4 2
27 4 2
28 4 2
29 4 2
30 4 2
31 4 2
32 4 2
33 4 2
34 4 2
35 4 2
36 4 2
37 4 2
38 4 2
39 4 2
40 4 2
41 4 2
42 4 2
43 4 2
44 4 2
45 4 2
46 4 2
47 4 2
48 4 2
49 4 2
0 5 2
1 5 2
2 5 2
3 5 2
4 5 2
5 5 2
6 5 2
7 5 2
8 5 2
9 5 2
10 5 2
11 5 2
12 5 2
13 5 2
14 5 2
15 5 2
16 5 2
17 5 2
18 5 2
19 5 2
20 5 2
21 5 2
22 5 2
23 5 2
24 5 2
25 5 2
26 5 2
27 5 2
28 5 2
29 5 2
30 5 2
31 5 2
32 5 2
33 5 2
34 5 2
35 5 2
36 5 2
37 5 2
38 5 2
39 5 2
40 5 2
41 5 2
42 5 2
43 5 2
44 5 2
45 5 2
46 5 2
47 5 2
48 5 2
49 5 2
0 6 2
1 6 2
2 6 2
3 6 2
4 6 2
5 6 2
6 6 2
7 6 2
8 6 2
9 6 2
10 6 2
11 6 2
12 6 2
13 6 2
14 6 2
15 6 2
16 6 2
17 6 2
18 6 2
19 6 2
20 6 2
21 6 2
22 6 2
23 6 2
24 6 2
25 6 2
26 6 2
27 6 2
28 6 2
29 6 2
30 6 2
31 6 2
32 6 2
33 6 2
34 6 2
35 6 2
36 6 2
37 6 2
38 6 2
39 6 2
40 6 2
41 6 2
42 6 2
43 6 2
44 6 2
45 6 2
46 6 2
47 6 2
48 6 2
49 6 2
0 7 2
1 7 2
2 7 2
3 7 2
4 7 2
5 7 2
6 7 2
7 7 2
8 7 2
9 7 2
10 7 2
11 7 2
12 7 2
13 7 2
14 7 2
15 7 2
16 7 2
17 7 2
18 7 2
19 7 2
20 7 2
21 7 2
22 7 2
23 7 2
24 7 2
25 7 2
26 7 2
27 7 2
28 7 2
29 7 2
30 7 2
31 7 2
32 7 2
33 7 2
34 7 2
35 7 2
36 7 2
37 7 2
38 7 2
39 7 2
40 7 2
41 7 2
42 7 2
43 7 2
44 7 2
45 7 2
46 7 2
47 7 2
48 7 2
49 7 2
0 8 2
1 8 2
2 8 2
3 8 2
4 8 2
5 8 2
6 8 2
7 8 2
8 8 2
9 8 2
10 8 2
11 8 2
12 8 2
13 8 2
14 8 2
15 8 2
16 8 2
17 8 2
18 8 2
19 8 2
20 8 2
21 8 2
22 8 2
23 8 2
24 8 2
25 8 2
26 8 2
27 8 2
28 8 2
29 8 2
30 8 2
31 8 2
32 8 2
33 8 2
34 8 2
35 8 2
36 8 2
37 8 2
38 8 2
39 8 2
40 8 2
41 8 2
42 8 2
43 8 2
44 8 2
45 8 2
46 8 2
47 8 2
48 8 2
49 8 2
0 9 2
1 9 2
2 9 2
3 9 2
4 9 2
[...]
POINT_DATA 15000
SCALARS sol372 float
LOOKUP_TABLE default
58.4429
58.4398
58.4368
58.4338
58.4307
58.4277
58.4246
58.4216
58.4185
58.4155
58.4124
58.4094
58.4063
58.4033
58.4003
58.3972
58.3942
58.3911
58.3881
58.385
58.382
58.379
58.3759
58.3729
58.3698
58.3668
58.3638
58.3607
58.3577
58.3546
58.3516
58.3486
58.3455
58.3425
58.3395
58.3364
58.3334
58.3304
58.3273
58.3243
58.3213
58.3182
58.3152
58.3122
58.3091
58.3061
58.3031
58.3
58.297
58.294
58.291
58.2879
58.2849
58.2819
58.2788
58.2758
58.2728
58.2698
58.2667
58.2637
58.2607
58.2577
58.2546
58.2516
58.2486
58.2456
58.2425
58.2395
58.2365
58.2335
58.2305
58.2274
58.2244
58.2214
58.2184
58.2154
58.2123
58.2093
58.2063
58.2033
58.2003
58.1973
58.1942
58.1912
58.1882
58.1852
58.1822
58.1792
58.1762
58.1731
58.1701
58.1671
58.1641
58.1611
58.1581
58.1551
58.1521
58.149
58.146
58.143
58.14
58.137
58.134
58.131
58.128
58.125
58.122
58.119
58.116
58.113
58.11
58.107
58.1039
58.1009
58.0979
58.0949
58.0919
58.0889
58.0859
58.0829
58.0799
58.0769
58.0739
58.0709
58.0679
58.0649
58.0619
58.0589
58.0559
58.0529
58.0499
58.0469
58.044
58.041
58.038
58.035
58.032
58.029
58.026
58.023
58.02
58.017
58.014
58.011
58.008
58.005
58.002
57.9991
57.9961
57.9931
57.9901
57.9871
57.9841
57.9811
57.9781
57.9752
57.9722
57.9692
57.9662
57.9632
57.9602
57.9572
57.9543
57.9513
57.9483
57.9453
57.9423
57.9393
57.9364
57.9334
57.9304
57.9274
57.9244
57.9215
57.9185
57.9155
57.9125
57.9095
57.9066
57.9036
57.9006
57.8976
57.8947
57.8917
57.8887
57.8857
57.8828
57.8798
57.8768
57.8738
57.8709
57.8679
57.8649
57.862
57.859
57.856
57.853
57.8501
57.8471
57.8441
57.8412
57.8382
57.8352
57.8323
57.8293
57.8263
57.8234
57.8204
57.8174
57.8145
57.8115
57.8085
57.8056
57.8026
57.7996
57.7967
57.7937
57.7908
57.7878
57.7848
57.7819
57.7789
57.776
57.773
57.77
57.7671
57.7641
57.7612
57.7582
57.7552
57.7523
57.7493
57.7464
57.7434
57.7405
57.7375
57.7346
57.7316
57.7286
57.7257
57.7227
57.7198
57.7168
57.7139
57.7109
57.708
57.705
57.7021
57.6991
57.6962
57.6932
57.6903
57.6873
57.6844
57.6814
57.6785
57.6755
57.6726
57.6697
57.6667
57.6638
57.6608
57.6579
57.6549
57.652
57.649
57.6461
57.6432
57.6402
57.6373
57.6343
57.6314
57.6285
57.6255
57.6226
57.6196
57.6167
57.6138
57.6108
57.6079
57.6049
57.602
57.5991
57.5961
57.5932
57.5903
57.5873
57.5844
57.5815
57.5785
57.5756
57.5727
57.5697
57.5668
57.5639
57.5609
57.558
57.5551
57.5522
57.5492
57.5463
57.5434
57.5404
57.5375
57.5346
57.5317
57.5287
57.5258
57.5229
57.5199
57.517
57.5141
57.5112
57.5083
57.5053
57.5024
57.4995
57.4966
57.4936
57.4907
57.4878
57.4849
57.482
57.479
57.4761
57.4732
57.4703
57.4674
57.4644
57.4615
57.4586
57.4557
57.4528
57.4499
57.4469
57.444
57.4411
57.4382
57.4353
57.4324
57.4295
57.4265
57.4236
57.4207
57.4178
57.4149
57.412
57.4091
57.4062
57.4033
57.4003
57.3974
57.3945
57.3916
57.3887
57.3858
57.3829
57.38
57.3771
57.3742
57.3713
57.3684
57.3655
57.3626
57.3597
57.3568
57.3538
57.3509
57.348
57.3451
57.3422
57.3393
57.3364
57.3335
57.3306
57.3277
57.3248
57.3219
57.319
57.3161
57.3132
57.3104
57.3075
57.3046
57.3017
57.2988
57.2959
57.293
57.2901
57.2872
57.2843
57.2814
57.2785
57.2756
57.2727
57.2698
57.2669
57.2641
57.2612
57.2583
57.2554
57.2525
57.2496
57.2467
57.2438
57.2409
57.2381
57.2352
57.2323
57.2294
57.2265
57.2236
57.2207
57.2179
57.215
57.2121
57.2092
57.2063
57.2034
57.2006
57.1977
57.1948
57.1919
57.189
57.1861
57.1833
57.1804
57.1775
57.1746
57.1718
57.1689
57.166
57.1631
57.1602
57.1574
57.1545
57.1516
57.1487
57.1459
57.143
57.1401
57.1372
57.1344
57.1315
57.1286
57.1258
57.1229
57.12
57.1171
57.1143
57.1114
57.1085
57.1057
57.1028
57.0999
57.0971
57.0942
57.0913
57.0885
57.0856
57.0827
57.0799
57.077
57.0741
57.0713
57.0684
57.0655
57.0627
57.0598
57.0569
57.0541
57.0512
57.0484
57.0455
57.0426
57.0398
57.0369
57.0341
57.0312
57.0283
57.0255
57.0226
57.0198
57.0169
57.0141
57.0112
57.0083
57.0055
57.0026
56.9998
56.9969
56.9941
56.9912
56.9884
56.9855
56.9827
56.9798
56.9769
56.9741
56.9712
56.9684
56.9655
56.9627
56.9598
56.957
56.9541
56.9513
56.9485
56.9456
56.9428
56.9399
56.9371
56.9342
56.9314
56.9285
56.9257
56.9228
56.92
56.9172
56.9143
56.9115
56.9086
56.9058
56.9029
56.9001
56.8973
56.8944
56.8916
56.8887
56.8859
56.8831
56.8802
56.8774
56.8745
56.8717
56.8689
56.866
56.8632
56.8604
56.8575
56.8547
56.8519
56.849
56.8462
56.8434
56.8405
56.8377
56.8349
56.832
56.8292
56.8264
56.8235
56.8207
56.8179
56.815
56.8122
56.8094
56.8066
56.8037
56.8009
56.7981
56.7953
56.7924
56.7896
56.7868
56.7839
56.7811
56.7783
56.7755
56.7726
56.7698
56.767
56.7642
56.7614
56.7585
56.7557
56.7529
56.7501
56.7473
56.7444
56.7416
56.7388
56.736
56.7332
56.7303
56.7275
56.7247
56.7219
56.7191
56.7163
56.7134
56.7106
56.7078
56.705
56.7022
56.6994
56.6966
56.6937
56.6909
56.6881
56.6853
56.6825
56.6797
56.6769
56.6741
56.6713
56.6684
56.6656
56.6628
56.66
56.6572
56.6544
56.6516
56.6488
56.646
56.6432
56.6404
56.6376
56.6348
56.632
56.6292
56.6264
56.6235
56.6207
56.6179
56.6151
56.6123
56.6095
56.6067
56.6039
56.6011
56.5983
56.5955
56.5927
56.5899
56.5871
56.5843
56.5815
56.5787
56.576
56.5732
56.5704
56.5676
56.5648
56.562
56.5592
56.5564
56.5536
56.5508
56.548
56.5452
56.5424
56.5396
56.5368
56.534
56.5313
56.5285
56.5257
56.5229
56.5201
56.5173
56.5145
56.5117
56.5089
56.5062
56.5034
56.5006
56.4978
56.495
56.4922
56.4894
56.4867
56.4839
56.4811
56.4783
56.4755
56.4727
56.47
56.4672
56.4644
56.4616
56.4588
56.4561
56.4533
56.4505
56.4477
56.4449
56.4422
56.4394
56.4366
56.4338
56.4311
56.4283
56.4255
56.4227
56.42
56.4172
56.4144
56.4116
56.4089
56.4061
56.4033
56.4005
56.3978
56.395
56.3922
56.3895
56.3867
56.3839
56.3811
56.3784
56.3756
56.3728
56.3701
56.3673
56.3645
56.3618
56.359
56.3562
56.3535
56.3507
56.3479
56.3452
56.3424
56.3396
56.3369
56.3341
56.3314
56.3286
56.3258
56.3231
56.3203
56.3175
56.3148
56.312
56.3093
56.3065
56.3037
56.301
56.2982
56.2955
56.2927
56.29
56.2872
56.2844
56.2817
56.2789
56.2762
56.2734
56.2707
56.2679
56.2652
56.2624
56.2597
56.2569
56.2542
56.2514
56.2486
56.2459
56.2431
56.2404
56.2376
56.2349
56.2321
56.2294
56.2266
56.2239
56.2212
56.2184
56.2157
56.2129
56.2102
56.2074
56.2047
56.2019
56.1992
56.1964
56.1937
56.191
56.1882
56.1855
56.1827
56.18
56.1772
56.1745
56.1718
56.169
56.1663
56.1635
56.1608
56.1581
56.1553
56.1526
56.1499
56.1471
56.1444
56.1416
56.1389
56.1362
56.1334
56.1307
56.128
56.1252
56.1225
56.1198
56.117
56.1143
56.1116
56.1088
56.1061
56.1034
56.1006
56.0979
56.0952
56.0925
56.0897
56.087
56.0843
56.0815
56.0788
56.0761
56.0734
56.0706
56.0679
56.0652
56.0624
56.0597
56.057
56.0543
56.0516
56.0488
56.0461
56.0434
56.0407
56.0379
56.0352
56.0325
56.0298
56.0271
56.0243
56.0216
56.0189
56.0162
56.0135
56.0107
56.008
56.0053
56.0026
55.9999
55.9972
55.9944
55.9917
55.989
55.9863
55.9836
55.9809
55.9781
55.9754
55.9727
55.97
55.9673
55.9646
55.9619
55.9592
55.9565
55.9537
55.951
55.9483
55.9456
55.9429
55.9402
55.9375
55.9348
55.9321
55.9294
55.9267
55.924
55.9212
55.9185
55.9158
55.9131
55.9104
55.9077
55.905
55.9023
55.8996
55.8969
55.8942
55.8915
55.8888
55.8861
55.8834
55.8807
55.878
55.8753
55.8726
55.8699
55.8672
55.8645
55.8618
55.8591
55.8564
55.8537
55.851
55.8483
55.8456
55.8429
55.8403
55.8376
55.8349
55.8322
55.8295
55.8268
55.8241
55.8214
55.8187
55.816
55.8133
55.8106
55.808
55.8053
55.8026
55.7999
55.7972
55.7945
55.7918
55.7891
55.7864
55.7838
55.7811
55.7784
55.7757
55.773
55.7703
55.7676
55.765
55.7623
55.7596
55.7569
55.7542
55.7516
55.7489
55.7462
55.7435
55.7408
55.7381
55.7355
55.7328
55.7301
55.7274
55.7248
55.7221
55.7194
55.7167
55.714
55.7114
55.7087
55.706
55.7033
55.7007
55.698
55.6953
55.6926
55.69
55.6873
55.6846
55.682
55.6793
55.6766
55.6739
55.6713
55.6686
55.6659
55.6633
55.6606
55.6579
55.6553
55.6526
55.6499
55.6473
55.6446
55.6419
55.6393
55.6366
55.6339
55.6313
55.6286
55.6259
55.6233
55.6206
55.6179
55.6153
55.6126
55.6099
55.6073
55.6046
55.602
55.5993
55.5966
55.594
55.5913
55.5887
55.586
55.5833
55.5807
55.578
55.5754
55.5727
55.5701
55.5674
55.5648
55.5621
55.5594
55.5568
55.5541
55.5515
55.5488
55.5462
55.5435
55.5409
55.5382
55.5356
55.5329
55.5303
55.5276
55.525
55.5223
55.5197
55.517
55.5144
55.5117
55.5091
55.5064
55.5038
55.5011
55.4985
55.4958
55.4932
55.4905
55.4879
55.4853
55.4826
55.48
55.4773
55.4747
55.472
55.4694
55.4668
55.4641
55.4615
55.4588
55.4562
55.4536
55.4509
55.4483
55.4456
55.443
55.4404
55.4377
55.4351
55.4324
55.4298
55.4272
55.4245
55.4219
55.4193
55.4166
55.414
55.4114
55.4087
55.4061
55.4035
55.4008
55.3982
55.3956
55.3929
55.3903
55.3877
55.385
55.3824
55.3798
55.3772
55.3745
55.3719
55.3693
55.3666
55.364
55.3614
55.3588
55.3561
55.3535
55.3509
55.3483
55.3456
55.343
55.3404
55.3378
55.3351
55.3325
55.3299
55.3273
55.3247
55.322
55.3194
55.3168
55.3142
55.3116
55.3089
55.3063
55.3037
55.3011
55.2985
55.2958
55.2932
55.2906
55.288
55.2854
55.2828
55.2801
55.2775
55.2749
55.2723
55.2697
55.2671
55.2645
55.2619
55.2592
55.2566
55.254
55.2514
55.2488
55.2462
55.2436
55.241
55.2384
55.2357
55.2331
55.2305
55.2279
55.2253
55.2227
55.2201
55.2175
55.2149
55.2123
55.2097
55.2071
55.2045
55.2019
55.1993
55.1967
55.1941
55.1914
55.1888
55.1862
55.1836
55.181
55.1784
55.1758
55.1732
55.1706
55.168
55.1654
55.1628
55.1602
55.1576
55.1551
55.1525
55.1499
55.1473
55.1447
55.1421
55.1395
55.1369
55.1343
55.1317
55.1291
55.1265
55.1239
55.1213
55.1187
55.1161
55.1135
55.111
55.1084
55.1058
55.1032
55.1006
55.098
55.0954
55.0928
55.0902
55.0876
55.0851
55.0825
55.0799
55.0773
55.0747
55.0721
55.0695
55.067
55.0644
55.0618
55.0592
55.0566
55.054
55.0515
55.0489
55.0463
55.0437
55.0411
55.0385
55.036
55.0334
55.0308
55.0282
55.0256
55.0231
55.0205
55.0179
55.0153
55.0128
55.0102
55.0076
55.005
55.0025
54.9999
54.9973
54.9947
54.9922
54.9896
54.987
54.9844
54.9819
54.9793
54.9767
54.9741
54.9716
54.969
54.9664
54.9639
54.9613
54.9587
54.9562
54.9536
54.951
54.9485
54.9459
54.9433
54.9407
54.9382
54.9356
54.9331
54.9305
54.9279
54.9254
54.9228
54.9202
54.9177
54.9151
54.9125
54.91
54.9074
54.9049
54.9023
54.8997
54.8972
54.8946
54.8921
54.8895
54.8869
54.8844
54.8818
54.8793
54.8767
54.8741
54.8716
54.869
54.8665
54.8639
54.8614
54.8588
54.8563
54.8537
54.8511
54.8486
54.846
54.8435
54.8409
54.8384
54.8358
54.8333
54.8307
54.8282
54.8256
54.8231
54.8205
54.818
54.8154
54.8129
54.8103
54.8078
54.8052
54.8027
54.8001
54.7976
54.795
54.7925
54.79
54.7874
54.7849
54.7823
54.7798
54.7772
54.7747
54.7722
54.7696
54.7671
54.7645
54.762
54.7594
54.7569
54.7544
54.7518
54.7493
54.7467
54.7442
54.7417
54.7391
54.7366
54.7341
54.7315
54.729
54.7265
54.7239
54.7214
54.7188
54.7163
54.7138
54.7112
54.7087
54.7062
54.7036
54.7011
54.6986
54.696
54.6935
54.691
54.6885
54.6859
54.6834
54.6809
54.6783
54.6758
54.6733
54.6708
54.6682
54.6657
54.6632
54.6606
54.6581
54.6556
54.6531
54.6505
54.648
54.6455
54.643
54.6404
54.6379
54.6354
54.6329
54.6304
54.6278
54.6253
54.6228
54.6203
54.6177
54.6152
54.6127
54.6102
54.6077
54.6052
54.6026
54.6001
54.5976
54.5951
54.5926
54.5901
54.5875
54.585
54.5825
54.58
54.5775
54.575
54.5724
54.5699
54.5674
54.5649
54.5624
54.5599
54.5574
54.5549
54.5524
54.5498
54.5473
54.5448
54.5423
54.5398
54.5373
54.5348
54.5323
54.5298
54.5273
54.5248
54.5223
54.5197
54.5172
54.5147
54.5122
54.5097
54.5072
54.5047
54.5022
54.4997
54.4972
54.4947
54.4922
54.4897
54.4872
54.4847
54.4822
54.4797
54.4772
54.4747
54.4722
54.4697
54.4672
54.4647
54.4622
54.4597
54.4572
54.4547
54.4522
54.4497
54.4472
54.4447
54.4422
54.4397
54.4372
54.4348
54.4323
54.4298
54.4273
54.4248
54.4223
54.4198
54.4173
54.4148
54.4123
54.4098
54.4073
54.4049
54.4024
54.3999
54.3974
54.3949
54.3924
54.3899
54.3874
54.385
54.3825
54.38
54.3775
54.375
54.3725
54.37
54.3676
54.3651
54.3626
54.3601
54.3576
54.3551
54.3527
54.3502
54.3477
54.3452
54.3427
54.3403
54.3378
54.3353
54.3328
54.3303
54.3279
54.3254
54.3229
54.3204
54.318
54.3155
54.313
54.3105
54.3081
54.3056
54.3031
54.3006
54.2982
54.2957
54.2932
54.2907
54.2883
54.2858
54.2833
54.2809
54.2784
54.2759
54.2734
54.271
54.2685
54.266
54.2636
54.2611
54.2586
54.2562
54.2537
54.2512
54.2488
54.2463
54.2438
54.2414
54.2389
54.2364
54.234
54.2315
54.229
54.2266
54.2241
54.2217
54.2192
54.2167
54.2143
54.2118
54.2093
54.2069
54.2044
54.202
54.1995
54.197
54.1946
54.1921
54.1897
54.1872
54.1848
54.1823
54.1798
54.1774
54.1749
54.1725
54.17
54.1676
54.1651
54.1627
54.1602
54.1578
54.1553
54.1528
54.1504
54.1479
54.1455
54.143
54.1406
54.1381
54.1357
54.1332
54.1308
54.1283
54.1259
54.1234
54.121
54.1186
54.1161
54.1137
54.1112
54.1088
54.1063
54.1039
54.1014
54.099
54.0965
54.0941
54.0917
54.0892
54.0868
54.0843
54.0819
54.0794
54.077
54.0746
54.0721
54.0697
54.0672
54.0648
54.0624
54.0599
54.0575
54.055
54.0526
54.0502
54.0477
54.0453
54.0429
54.0404
54.038
54.0356
54.0331
54.0307
54.0282
54.0258
54.0234
54.0209
54.0185
54.0161
54.0137
54.0112
54.0088
54.0064
54.0039
54.0015
53.9991
53.9966
53.9942
53.9918
53.9894
53.9869
53.9845
53.9821
53.9796
53.9772
53.9748
53.9724
53.9699
53.9675
53.9651
53.9627
53.9602
53.9578
53.9554
53.953
53.9505
53.9481
53.9457
53.9433
53.9409
53.9384
53.936
53.9336
53.9312
53.9288
53.9263
53.9239
53.9215
53.9191
53.9167
53.9142
53.9118
53.9094
53.907
53.9046
53.9022
53.8998
53.8973
53.8949
53.8925
53.8901
53.8877
53.8853
53.8829
53.8804
53.878
53.8756
53.8732
53.8708
53.8684
53.866
53.8636
53.8612
53.8587
53.8563
53.8539
53.8515
53.8491
53.8467
53.8443
53.8419
53.8395
53.8371
53.8347
53.8323
53.8299
53.8275
53.8251
53.8227
53.8203
53.8178
53.8154
53.813
53.8106
53.8082
53.8058
53.8034
53.801
53.7986
53.7962
53.7938
53.7914
53.789
53.7866
53.7842
53.7818
53.7794
53.7771
53.7747
53.7723
53.7699
53.7675
53.7651
53.7627
53.7603
53.7579
53.7555
53.7531
53.7507
53.7483
53.7459
53.7435
53.7411
53.7387
53.7364
53.734
53.7316
53.7292
53.7268
53.7244
53.722
53.7196
53.7172
53.7149
53.7125
53.7101
53.7077
53.7053
53.7029
53.7005
53.6981
53.6958
53.6934
53.691
53.6886
53.6862
53.6838
53.6815
53.6791
53.6767
53.6743
53.6719
53.6696
53.6672
53.6648
53.6624
53.66
53.6577
53.6553
53.6529
53.6505
53.6481
53.6458
53.6434
53.641
53.6386
53.6363
53.6339
53.6315
53.6291
53.6268
53.6244
53.622
53.6196
53.6173
53.6149
53.6125
53.6101
53.6078
53.6054
53.603
53.6007
53.5983
53.5959
53.5936
53.5912
53.5888
53.5864
53.5841
53.5817
53.5793
53.577
53.5746
53.5722
53.5699
53.5675
53.5651
53.5628
53.5604
53.558
53.5557
53.5533
53.551
53.5486
53.5462
53.5439
53.5415
53.5391
53.5368
53.5344
53.5321
53.5297
53.5273
53.525
53.5226
53.5203
53.5179
53.5156
53.5132
53.5108
53.5085
53.5061
53.5038
53.5014
53.4991
53.4967
53.4943
53.492
53.4896
53.4873
53.4849
53.4826
53.4802
53.4779
53.4755
53.4732
53.4708
53.4685
53.4661
53.4638
53.4614
53.4591
53.4567
53.4544
53.452
53.4497
53.4473
53.445
53.4426
53.4403
53.4379
53.4356
53.4332
53.4309
53.4286
53.4262
53.4239
53.4215
53.4192
53.4168
53.4145
53.4121
53.4098
53.4075
53.4051
53.4028
53.4004
53.3981
53.3958
53.3934
53.3911
53.3887
53.3864
53.3841
53.3817
53.3794
53.3771
53.3747
53.3724
53.37
53.3677
53.3654
53.363
53.3607
53.3584
53.356
53.3537
53.3514
53.349
53.3467
53.3444
53.342
53.3397
53.3374
53.335
53.3327
53.3304
53.3281
53.3257
53.3234
53.3211
53.3187
53.3164
53.3141
53.3118
53.3094
53.3071
53.3048
53.3025
53.3001
53.2978
53.2955
53.2932
53.2908
53.2885
53.2862
53.2839
53.2815
53.2792
53.2769
53.2746
53.2722
53.2699
53.2676
53.2653
53.263
53.2606
53.2583
53.256
53.2537
53.2514
53.2491
53.2467
53.2444
53.2421
53.2398
53.2375
53.2352
53.2328
53.2305
53.2282
53.2259
53.2236
53.2213
53.219
53.2166
53.2143
53.212
53.2097
53.2074
53.2051
53.2028
53.2005
53.1981
53.1958
53.1935
53.1912
53.1889
53.1866
53.1843
53.182
53.1797
53.1774
53.1751
53.1728
53.1705
53.1681
53.1658
53.1635
53.1612
53.1589
53.1566
53.1543
53.152
53.1497
53.1474
53.1451
53.1428
53.1405
53.1382
53.1359
53.1336
53.1313
53.129
53.1267
53.1244
53.1221
53.1198
53.1175
53.1152
53.1129
53.1106
53.1083
53.106
53.1037
53.1014
53.0991
53.0968
53.0946
53.0923
53.09
53.0877
53.0854
53.0831
53.0808
53.0785
53.0762
53.0739
53.0716
53.0693
53.067
53.0648
53.0625
53.0602
53.0579
53.0556
53.0533
53.051
53.0487
53.0464
53.0442
53.0419
53.0396
53.0373
53.035
53.0327
53.0304
53.0282
53.0259
53.0236
53.0213
53.019
53.0167
53.0145
53.0122
53.0099
53.0076
53.0053
53.0031
53.0008
52.9985
52.9962
52.9939
52.9917
52.9894
52.9871
52.9848
52.9826
52.9803
52.978
52.9757
52.9734
52.9712
52.9689
52.9666
52.9643
52.9621
52.9598
52.9575
52.9552
52.953
52.9507
52.9484
52.9462
52.9439
52.9416
52.9393
52.9371
52.9348
52.9325
52.9303
52.928
52.9257
52.9235
52.9212
52.9189
52.9167
52.9144
52.9121
52.9099
52.9076
52.9053
52.9031
52.9008
52.8985
52.8963
52.894
52.8917
52.8895
52.8872
52.885
52.8827
52.8804
52.8782
52.8759
52.8736
52.8714
52.8691
52.8669
52.8646
52.8623
52.8601
52.8578
52.8556
52.8533
52.8511
52.8488
52.8465
52.8443
52.842
52.8398
52.8375
52.8353
52.833
52.8308
52.8285
52.8263
52.824
52.8217
52.8195
52.8172
52.815
52.8127
52.8105
52.8082
52.806
52.8037
52.8015
52.7992
52.797
52.7947
52.7925
52.7902
52.788
52.7857
52.7835
52.7813
52.779
52.7768
52.7745
52.7723
52.77
52.7678
52.7655
52.7633
52.7611
52.7588
52.7566
52.7543
52.7521
52.7498
52.7476
52.7454
52.7431
52.7409
52.7386
52.7364
52.7342
52.7319
52.7297
52.7274
52.7252
52.723
52.7207
52.7185
52.7163
52.714
52.7118
52.7095
52.7073
52.7051
52.7028
52.7006
52.6984
52.6961
52.6939
52.6917
52.6894
52.6872
52.685
52.6827
52.6805
52.6783
52.6761
52.6738
52.6716
52.6694
52.6671
52.6649
52.6627
52.6605
52.6582
52.656
52.6538
52.6515
52.6493
52.6471
52.6449
52.6426
52.6404
52.6382
52.636
52.6337
52.6315
52.6293
52.6271
52.6249
52.6226
52.6204
52.6182
52.616
52.6137
52.6115
52.6093
52.6071
52.6049
52.6026
52.6004
52.5982
52.596
52.5938
52.5916
52.5893
52.5871
52.5849
52.5827
52.5805
52.5783
52.576
52.5738
52.5716
52.5694
52.5672
52.565
52.5628
52.5606
52.5583
52.5561
52.5539
52.5517
52.5495
52.5473
52.5451
52.5429
52.5407
52.5384
52.5362
52.534
52.5318
52.5296
52.5274
52.5252
52.523
52.5208
52.5186
52.5164
52.5142
52.512
52.5098
52.5076
52.5054
52.5032
52.5009
52.4987
52.4965
52.4943
52.4921
52.4899
52.4877
52.4855
52.4833
52.4811
52.4789
52.4767
52.4745
52.4723
52.4701
52.4679
52.4657
52.4635
52.4614
52.4592
52.457
52.4548
52.4526
52.4504
52.4482
52.446
52.4438
52.4416
52.4394
52.4372
52.435
52.4328
52.4306
52.4284
52.4262
52.4241
52.4219
52.4197
52.4175
52.4153
52.4131
52.4109
52.4087
52.4065
52.4043
52.4022
52.4
52.3978
52.3956
52.3934
52.3912
52.389
52.3869
52.3847
52.3825
52.3803
52.3781
52.3759
52.3738
52.3716
52.3694
52.3672
52.365
52.3628
52.3607
52.3585
52.3563
52.3541
52.3519
52.3498
52.3476
52.3454
52.3432
52.341
52.3389
52.3367
52.3345
52.3323
52.3302
52.328
52.3258
52.3236
52.3215
52.3193
52.3171
52.3149
52.3128
52.3106
52.3084
52.3062
52.3041
52.3019
52.2997
52.2975
52.2954
52.2932
52.291
52.2889
52.2867
52.2845
52.2824
52.2802
52.278
52.2759
52.2737
52.2715
52.2694
52.2672
52.265
52.2629
52.2607
52.2585
52.2564
52.2542
52.252
52.2499
52.2477
52.2455
52.2434
52.2412
52.239
52.2369
52.2347
52.2326
52.2304
52.2282
52.2261
52.2239
52.2218
52.2196
52.2174
52.2153
52.2131
52.211
52.2088
52.2067
52.2045
52.2023
52.2002
52.198
52.1959
52.1937
52.1916
52.1894
52.1873
52.1851
52.1829
52.1808
52.1786
52.1765
52.1743
52.1722
52.17
52.1679
52.1657
52.1636
52.1614
52.1593
52.1571
52.155
52.1528
52.1507
52.1485
52.1464
52.1442
52.1421
52.14
52.1378
52.1357
52.1335
52.1314
52.1292
52.1271
52.1249
52.1228
52.1206
52.1185
52.1164
52.1142
52.1121
52.1099
52.1078
52.1057
52.1035
52.1014
52.0992
52.0971
52.095
52.0928
52.0907
52.0885
52.0864
52.0843
52.0821
52.08
52.0778
52.0757
52.0736
52.0714
52.0693
52.0672
52.065
52.0629
52.0608
52.0586
52.0565
52.0544
52.0522
52.0501
52.048
52.0458
52.0437
52.0416
52.0394
52.0373
52.0352
52.0331
52.0309
52.0288
52.0267
52.0245
52.0224
52.0203
52.0182
52.016
52.0139
52.0118
52.0096
52.0075
52.0054
52.0033
52.0011
51.999
51.9969
51.9948
51.9927
51.9905
51.9884
51.9863
51.9842
51.982
51.9799
51.9778
51.9757
51.9736
51.9714
51.9693
51.9672
51.9651
51.963
51.9608
51.9587
51.9566
51.9545
51.9524
51.9503
51.9481