# vtk DataFile Version 2.0
vtk output
ASCII
DATASET STRUCTURED_GRID
DIMENSIONS 50 10 30
POINTS 15000 float
0 0 0
1 0 0
2 0 0
3 0 0
4 0 0
5 0 0
6 0 0
7 0 0
8 0 0
9 0 0
10 0 0
11 0 0
12 0 0
13 0 0
14 0 0
15 0 0
16 0 0
17 0 0
18 0 0
19 0 0
20 0 0
21 0 0
22 0 0
23 0 0
24 0 0
25 0 0
26 0 0
27 0 0
28 0 0
29 0 0
30 0 0
31 0 0
32 0 0
33 0 0
34 0 0
35 0 0
36 0 0
37 0 0
38 0 0
39 0 0
40 0 0
41 0 0
42 0 0
43 0 0
44 0 0
45 0 0
46 0 0
47 0 0
48 0 0
49 0 0
0 1 0
1 1 0
2 1 0
3 1 0
4 1 0
5 1 0
6 1 0
7 1 0
8 1 0
9 1 0
10 1 0
11 1 0
12 1 0
13 1 0
14 1 0
15 1 0
16 1 0
17 1 0
18 1 0
19 1 0
20 1 0
21 1 0
22 1 0
23 1 0
24 1 0
25 1 0
26 1 0
27 1 0
28 1 0
29 1 0
30 1 0
31 1 0
32 1 0
33 1 0
34 1 0
35 1 0
36 1 0
37 1 0
38 1 0
39 1 0
40 1 0
41 1 0
42 1 0
43 1 0
44 1 0
45 1 0
46 1 0
47 1 0
48 1 0
49 1 0
0 2 0
1 2 0
2 2 0
3 2 0
4 2 0
5 2 0
6 2 0
7 2 0
8 2 0
9 2 0
10 2 0
11 2 0
12 2 0
13 2 0
14 2 0
15 2 0
16 2 0
17 2 0
18 2 0
19 2 0
20 2 0
21 2 0
22 2 0
23 2 0
24 2 0
25 2 0
26 2 0
27 2 0
28 2 0
29 2 0
30 2 0
31 2 0
32 2 0
33 2 0
34 2 0
35 2 0
36 2 0
37 2 0
38 2 0
39 2 0
40 2 0
41 2 0
42 2 0
43 2 0
44 2 0
45 2 0
46 2 0
47 2 0
48 2 0
49 2 0
0 3 0
1 3 0
2 3 0
3 3 0
4 3 0
5 3 0
6 3 0
7 3 0
8 3 0
9 3 0
10 3 0
11 3 0
12 3 0
13 3 0
14 3 0
15 3 0
16 3 0
17 3 0
18 3 0
19 3 0
20 3 0
21 3 0
22 3 0
23 3 0
24 3 0
25 3 0
26 3 0
27 3 0
28 3 0
29 3 0
30 3 0
31 3 0
32 3 0
33 3 0
34 3 0
35 3 0
36 3 0
37 3 0
38 3 0
39 3 0
40 3 0
41 3 0
42 3 0
43 3 0
44 3 0
45 3 0
46 3 0
47 3 0
48 3 0
49 3 0
0 4 0
1 4 0
2 4 0
3 4 0
4 4 0
5 4 0
6 4 0
7 4 0
8 4 0
9 4 0
10 4 0
11 4 0
12 4 0
13 4 0
14 4 0
15 4 0
16 4 0
17 4 0
18 4 0
19 4 0
20 4 0
21 4 0
22 4 0
23 4 0
24 4 0
25 4 0
26 4 0
27 4 0
28 4 0
29 4 0
30 4 0
31 4 0
32 4 0
33 4 0
34 4 0
35 4 0
36 4 0
37 4 0
38 4 0
39 4 0
40 4 0
41 4 0
42 4 0
43 4 0
44 4 0
45 4 0
46 4 0
47 4 0
48 4 0
49 4 0
0 5 0
1 5 0
2 5 0
3 5 0
4 5 0
5 5 0
6 5 0
7 5 0
8 5 0
9 5 0
10 5 0
11 5 0
12 5 0
13 5 0
14 5 0
15 5 0
16 5 0
17 5 0
18 5 0
19 5 0
20 5 0
21 5 0
22 5 0
23 5 0
24 5 0
25 5 0
26 5 0
27 5 0
28 5 0
29 5 0
30 5 0
31 5 0
32 5 0
33 5 0
34 5 0
35 5 0
36 5 0
37 5 0
38 5 0
39 5 0
40 5 0
41 5 0
42 5 0
43 5 0
44 5 0
45 5 0
46 5 0
47 5 0
48 5 0
49 5 0
0 6 0
1 6 0
2 6 0
3 6 0
4 6 0
5 6 0
6 6 0
7 6 0
8 6 0
9 6 0
10 6 0
11 6 0
12 6 0
13 6 0
14 6 0
15 6 0
16 6 0
17 6 0
18 6 0
19 6 0
20 6 0
21 6 0
22 6 0
23 6 0
24 6 0
25 6 0
26 6 0
27 6 0
28 6 0
29 6 0
30 6 0
31 6 0
32 6 0
33 6 0
34 6 0
35 6 0
36 6 0
37 6 0
38 6 0
39 6 0
40 6 0
41 6 0
42 6 0
43 6 0
44 6 0
45 6 0
46 6 0
47 6 0
48 6 0
49 6 0
0 7 0
1 7 0
2 7 0
3 7 0
4 7 0
5 7 0
6 7 0
7 7 0
8 7 0
9 7 0
10 7 0
11 7 0
12 7 0
13 7 0
14 7 0
15 7 0
16 7 0
17 7 0
18 7 0
19 7 0
20 7 0
21 7 0
22 7 0
23 7 0
24 7 0
25 7 0
26 7 0
27 7 0
28 7 0
29 7 0
30 7 0
31 7 0
32 7 0
33 7 0
34 7 0
35 7 0
36 7 0
37 7 0
38 7 0
39 7 0
40 7 0
41 7 0
42 7 0
43 7 0
44 7 0
45 7 0
46 7 0
47 7 0
48 7 0
49 7 0
0 8 0
1 8 0
2 8 0
3 8 0
4 8 0
5 8 0
6 8 0
7 8 0
8 8 0
9 8 0
10 8 0
11 8 0
12 8 0
13 8 0
14 8 0
15 8 0
16 8 0
17 8 0
18 8 0
19 8 0
20 8 0
21 8 0
22 8 0
23 8 0
24 8 0
25 8 0
26 8 0
27 8 0
28 8 0
29 8 0
30 8 0
31 8 0
32 8 0
33 8 0
34 8 0
35 8 0
36 8 0
37 8 0
38 8 0
39 8 0
40 8 0
41 8 0
42 8 0
43 8 0
44 8 0
45 8 0
46 8 0
47 8 0
48 8 0
49 8 0
0 9 0
1 9 0
2 9 0
3 9 0
4 9 0
5 9 0
6 9 0
7 9 0
8 9 0
9 9 0
10 9 0
11 9 0
12 9 0
13 9 0
14 9 0
15 9 0
16 9 0
17 9 0
18 9 0
19 9 0
20 9 0
21 9 0
22 9 0
23 9 0
24 9 0
25 9 0
26 9 0
27 9 0
28 9 0
29 9 0
30 9 0
31 9 0
32 9 0
33 9 0
34 9 0
35 9 0
36 9 0
37 9 0
38 9 0
39 9 0
40 9 0
41 9 0
42 9 0
43 9 0
44 9 0
45 9 0
46 9 0
47 9 0
48 9 0
49 9 0
0 0 1
1 0 1
2 0 1
3 0 1
4 0 1
5 0 1
6 0 1
7 0 1
8 0 1
9 0 1
10 0 1
11 0 1
12 0 1
13 0 1
14 0 1
15 0 1
16 0 1
17 0 1
18 0 1
19 0 1
20 0 1
21 0 1
22 0 1
23 0 1
24 0 1
25 0 1
26 0 1
27 0 1
28 0 1
29 0 1
30 0 1
31 0 1
32 0 1
33 0 1
34 0 1
35 0 1
36 0 1
37 0 1
38 0 1
39 0 1
40 0 1
41 0 1
42 0 1
43 0 1
44 0 1
45 0 1
46 0 1
47 0 1
48 0 1
49 0 1
0 1 1
1 1 1
2 1 1
3 1 1
4 1 1
5 1 1
6 1 1
7 1 1
8 1 1
9 1 1
10 1 1
11 1 1
12 1 1
13 1 1
14 1 1
15 1 1
16 1 1
17 1 1
18 1 1
19 1 1
20 1 1
21 1 1
22 1 1
23 1 1
24 1 1
25 1 1
26 1 1
27 1 1
28 1 1
29 1 1
30 1 1
31 1 1
32 1 1
33 1 1
34 1 1
35 1 1
36 1 1
37 1 1
38 1 1
39 1 1
40 1 1
41 1 1
42 1 1
43 1 1
44 1 1
45 1 1
46 1 1
47 1 1
48 1 1
49 1 1
0 2 1
1 2 1
2 2 1
3 2 1
4 2 1
5 2 1
6 2 1
7 2 1
8 2 1
9 2 1
10 2 1
11 2 1
12 2 1
13 2 1
14 2 1
15 2 1
16 2 1
17 2 1
18 2 1
19 2 1
20 2 1
21 2 1
22 2 1
23 2 1
24 2 1
25 2 1
26 2 1
27 2 1
28 2 1
29 2 1
30 2 1
31 2 1
32 2 1
33 2 1
34 2 1
35 2 1
36 2 1
37 2 1
38 2 1
39 2 1
40 2 1
41 2 1
42 2 1
43 2 1
44 2 1
45 2 1
46 2 1
47 2 1
48 2 1
49 2 1
0 3 1
1 3 1
2 3 1
3 3 1
4 3 1
5 3 1
6 3 1
7 3 1
8 3 1
9 3 1
10 3 1
11 3 1
12 3 1
13 3 1
14 3 1
15 3 1
16 3 1
17 3 1
18 3 1
19 3 1
20 3 1
21 3 1
22 3 1
23 3 1
24 3 1
25 3 1
26 3 1
27 3 1
28 3 1
29 3 1
30 3 1
31 3 1
32 3 1
33 3 1
34 3 1
35 3 1
36 3 1
37 3 1
38 3 1
39 3 1
40 3 1
41 3 1
42 3 1
43 3 1
44 3 1
45 3 1
46 3 1
47 3 1
48 3 1
49 3 1
0 4 1
1 4 1
2 4 1
3 4 1
4 4 1
5 4 1
6 4 1
7 4 1
8 4 1
9 4 1
10 4 1
11 4 1
12 4 1
13 4 1
14 4 1
15 4 1
16 4 1
17 4 1
18 4 1
19 4 1
20 4 1
21 4 1
22 4 1
23 4 1
24 4 1
25 4 1
26 4 1
27 4 1
28 4 1
29 4 1
30 4 1
31 4 1
32 4 1
33 4 1
34 4 1
35 4 1
36 4 1
37 4 1
38 4 1
39 4 1
40 4 1
41 4 1
42 4 1
43 4 1
44 4 1
45 4 1
46 4 1
47 4 1
48 4 1
49 4 1
0 5 1
1 5 1
2 5 1
3 5 1
4 5 1
5 5 1
6 5 1
7 5 1
8 5 1
9 5 1
10 5 1
11 5 1
12 5 1
13 5 1
14 5 1
15 5 1
16 5 1
17 5 1
18 5 1
19 5 1
20 5 1
21 5 1
22 5 1
23 5 1
24 5 1
25 5 1
26 5 1
27 5 1
28 5 1
29 5 1
30 5 1
31 5 1
32 5 1
33 5 1
34 5 1
35 5 1
36 5 1
37 5 1
38 5 1
39 5 1
40 5 1
41 5 1
42 5 1
43 5 1
44 5 1
45 5 1
46 5 1
47 5 1
48 5 1
49 5 1
0 6 1
1 6 1
2 6 1
3 6 1
4 6 1
5 6 1
6 6 1
7 6 1
8 6 1
9 6 1
10 6 1
11 6 1
12 6 1
13 6 1
14 6 1
15 6 1
16 6 1
17 6 1
18 6 1
19 6 1
20 6 1
21 6 1
22 6 1
23 6 1
24 6 1
25 6 1
26 6 1
27 6 1
28 6 1
29 6 1
30 6 1
31 6 1
32 6 1
33 6 1
34 6 1
35 6 1
36 6 1
37 6 1
38 6 1
39 6 1
40 6 1
41 6 1
42 6 1
43 6 1
44 6 1
45 6 1
46 6 1
47 6 1
48 6 1
49 6 1
0 7 1
1 7 1
2 7 1
3 7 1
4 7 1
5 7 1
6 7 1
7 7 1
8 7 1
9 7 1
10 7 1
11 7 1
12 7 1
13 7 1
14 7 1
15 7 1
16 7 1
17 7 1
18 7 1
19 7 1
20 7 1
21 7 1
22 7 1
23 7 1
24 7 1
25 7 1
26 7 1
27 7 1
28 7 1
29 7 1
30 7 1
31 7 1
32 7 1
33 7 1
34 7 1
35 7 1
36 7 1
37 7 1
38 7 1
39 7 1
40 7 1
41 7 1
42 7 1
43 7 1
44 7 1
45 7 1
46 7 1
47 7 1
48 7 1
49 7 1
0 8 1
1 8 1
2 8 1
3 8 1
4 8 1
5 8 1
6 8 1
7 8 1
8 8 1
9 8 1
10 8 1
11 8 1
12 8 1
13 8 1
14 8 1
15 8 1
16 8 1
17 8 1
18 8 1
19 8 1
20 8 1
21 8 1
22 8 1
23 8 1
24 8 1
25 8 1
26 8 1
27 8 1
28 8 1
29 8 1
30 8 1
31 8 1
32 8 1
33 8 1
34 8 1
35 8 1
36 8 1
37 8 1
38 8 1
39 8 1
40 8 1
41 8 1
42 8 1
43 8 1
44 8 1
45 8 1
46 8 1
47 8 1
48 8 1
49 8 1
0 9 1
1 9 1
2 9 1
3 9 1
4 9 1
5 9 1
6 9 1
7 9 1
8 9 1
9 9 1
10 9 1
11 9 1
12 9 1
13 9 1
14 9 1
15 9 1
16 9 1
17 9 1
18 9 1
19 9 1
20 9 1
21 9 1
22 9 1
23 9 1
24 9 1
25 9 1
26 9 1
27 9 1
28 9 1
29 9 1
30 9 1
31 9 1
32 9 1
33 9 1
34 9 1
35 9 1
36 9 1
37 9 1
38 9 1
39 9 1
40 9 1
41 9 1
42 9 1
43 9 1
44 9 1
45 9 1
46 9 1
47 9 1
48 9 1
49 9 1
0 0 2
1 0 2
2 0 2
3 0 2
4 0 2
5 0 2
6 0 2
7 0 2
8 0 2
9 0 2
10 0 2
11 0 2
12 0 2
13 0 2
14 0 2
15 0 2
16 0 2
17 0 2
18 0 2
19 0 2
20 0 2
21 0 2
22 0 2
23 0 2
24 0 2
25 0 2
26 0 2
27 0 2
28 0 2
29 0 2
30 0 2
31 0 2
32 0 2
33 0 2
34 0 2
35 0 2
36 0 2
37 0 2
38 0 2
39 0 2
40 0 2
41 0 2
42 0 2
43 0 2
44 0 2
45 0 2
46 0 2
47 0 2
48 0 2
49 0 2
0 1 2
1 1 2
2 1 2
3 1 2
4 1 2
5 1 2
6 1 2
7 1 2
8 1 2
9 1 2
10 1 2
11 1 2
12 1 2
13 1 2
14 1 2
15 1 2
16 1 2
17 1 2
18 1 2
19 1 2
20 1 2
21 1 2
22 1 2
23 1 2
24 1 2
25 1 2
26 1 2
27 1 2
28 1 2
29 1 2
30 1 2
31 1 2
32 1 2
33 1 2
34 1 2
35 1 2
36 1 2
37 1 2
38 1 2
39 1 2
40 1 2
41 1 2
42 1 2
43 1 2
44 1 2
45 1 2
46 1 2
47 1 2
48 1 2
49 1 2
0 2 2
1 2 2
2 2 2
3 2 2
4 2 2
5 2 2
6 2 2
7 2 2
8 2 2
9 2 2
10 2 2
11 2 2
12 2 2
13 2 2
14 2 2
15 2 2
16 2 2
17 2 2
18 2 2
19 2 2
20 2 2
21 2 2
22 2 2
23 2 2
24 2 2
25 2 2
26 2 2
27 2 2
28 2 2
29 2 2
30 2 2
31 2 2
32 2 2
33 2 2
34 2 2
35 2 2
36 2 2
37 2 2
38 2 2
39 2 2
40 2 2
41 2 2
42 2 2
43 2 2
44 2 2
45 2 2
46 2 2
47 2 2
48 2 2
49 2 2
0 3 2
1 3 2
2 3 2
3 3 2
4 3 2
5 3 2
6 3 2
7 3 2
8 3 2
9 3 2
10 3 2
11 3 2
12 3 2
13 3 2
14 3 2
15 3 2
16 3 2
17 3 2
18 3 2
19 3 2
20 3 2
21 3 2
22 3 2
23 3 2
24 3 2
25 3 2
26 3 2
27 3 2
28 3 2
29 3 2
30 3 2
31 3 2
32 3 2
33 3 2
34 3 2
35 3 2
36 3 2
37 3 2
38 3 2
39 3 2
40 3 2
41 3 2
42 3 2
43 3 2
44 3 2
45 3 2
46 3 2
47 3 2
48 3 2
49 3 2
0 4 2
1 4 2
2 4 2
3 4 2
4 4 2
5 4 2
6 4 2
7 4 2
8 4 2
9 4 2
10 4 2
11 4 2
12 4 2
13 4 2
14 4 2
15 4 2
16 4 2
17 4 2
18 4 2
19 4 2
20 4 2
21 4 2
22 4 2
23 4 2
24 4 2
25 4 2
26 4 2
27 4 2
28 4 2
29 4 2
30 4 2
31 4 2
32 4 2
33 4 2
34 4 2
35 4 2
36 4 2
37 4 2
38 4 2
39 4 2
40 4 2
41 4 2
42 4 2
43 4 2
44 4 2
45 4 2
46 4 2
47 4 2
48 4 2
49 4 2
0 5 2
1 5 2
2 5 2
3 5 2
4 5 2
5 5 2
6 5 2
7 5 2
8 5 2
9 5 2
10 5 2
11 5 2
12 5 2
13 5 2
14 5 2
15 5 2
16 5 2
17 5 2
18 5 2
19 5 2
20 5 2
21 5 2
22 5 2
23 5 2
24 5 2
25 5 2
26 5 2
27 5 2
28 5 2
29 5 2
30 5 2
31 5 2
32 5 2
33 5 2
34 5 2
35 5 2
36 5 2
37 5 2
38 5 2
39 5 2
40 5 2
41 5 2
42 5 2
43 5 2
44 5 2
45 5 2
46 5 2
47 5 2
48 5 2
49 5 2
0 6 2
1 6 2
2 6 2
3 6 2
4 6 2
5 6 2
6 6 2
7 6 2
8 6 2
9 6 2
10 6 2
11 6 2
12 6 2
13 6 2
14 6 2
15 6 2
16 6 2
17 6 2
18 6 2
19 6 2
20 6 2
21 6 2
22 6 2
23 6 2
24 6 2
25 6 2
26 6 2
27 6 2
28 6 2
29 6 2
30 6 2
31 6 2
32 6 2
33 6 2
34 6 2
35 6 2
36 6 2
37 6 2
38 6 2
39 6 2
40 6 2
41 6 2
42 6 2
43 6 2
44 6 2
45 6 2
46 6 2
47 6 2
48 6 2
49 6 2
0 7 2
1 7 2
2 7 2
3 7 2
4 7 2
5 7 2
6 7 2
7 7 2
8 7 2
9 7 2
10 7 2
11 7 2
12 7 2
13 7 2
14 7 2
15 7 2
16 7 2
17 7 2
18 7 2
19 7 2
20 7 2
21 7 2
22 7 2
23 7 2
24 7 2
25 7 2
26 7 2
27 7 2
28 7 2
29 7 2
30 7 2
31 7 2
32 7 2
33 7 2
34 7 2
35 7 2
36 7 2
37 7 2
38 7 2
39 7 2
40 7 2
41 7 2
42 7 2
43 7 2
44 7 2
45 7 2
46 7 2
47 7 2
48 7 2
49 7 2
0 8 2
1 8 2
2 8 2
3 8 2
4 8 2
5 8 2
6 8 2
7 8 2
8 8 2
9 8 2
10 8 2
11 8 2
12 8 2
13 8 2
14 8 2
15 8 2
16 8 2
17 8 2
18 8 2
19 8 2
20 8 2
21 8 2
22 8 2
23 8 2
24 8 2
25 8 2
26 8 2
27 8 2
28 8 2
29 8 2
30 8 2
31 8 2
32 8 2
33 8 2
34 8 2
35 8 2
36 8 2
37 8 2
38 8 2
39 8 2
40 8 2
41 8 2
42 8 2
43 8 2
44 8 2
45 8 2
46 8 2
47 8 2
48 8 2
49 8 2
0 9 2
1 9 2
2 9 2
3 9 2
4 9 2
[...]
POINT_DATA 15000
SCALARS sol128 float
LOOKUP_TABLE default
56.4993
56.4963
56.4932
56.4902
56.4871
56.4841
56.481
56.478
56.4749
56.4719
56.4689
56.4658
56.4628
56.4597
56.4567
56.4536
56.4506
56.4475
56.4445
56.4415
56.4384
56.4354
56.4323
56.4293
56.4263
56.4232
56.4202
56.4171
56.4141
56.4111
56.408
56.405
56.402
56.3989
56.3959
56.3929
56.3898
56.3868
56.3838
56.3807
56.3777
56.3747
56.3716
56.3686
56.3656
56.3625
56.3595
56.3565
56.3534
56.3504
56.3474
56.3444
56.3413
56.3383
56.3353
56.3322
56.3292
56.3262
56.3232
56.3201
56.3171
56.3141
56.3111
56.308
56.305
56.302
56.299
56.2959
56.2929
56.2899
56.2869
56.2839
56.2808
56.2778
56.2748
56.2718
56.2688
56.2657
56.2627
56.2597
56.2567
56.2537
56.2507
56.2476
56.2446
56.2416
56.2386
56.2356
56.2326
56.2296
56.2266
56.2235
56.2205
56.2175
56.2145
56.2115
56.2085
56.2055
56.2025
56.1995
56.1964
56.1934
56.1904
56.1874
56.1844
56.1814
56.1784
56.1754
56.1724
56.1694
56.1664
56.1634
56.1604
56.1574
56.1544
56.1514
56.1484
56.1454
56.1424
56.1394
56.1364
56.1334
56.1304
56.1274
56.1244
56.1214
56.1184
56.1154
56.1124
56.1094
56.1064
56.1034
56.1004
56.0974
56.0944
56.0914
56.0884
56.0854
56.0824
56.0794
56.0764
56.0734
56.0704
56.0674
56.0645
56.0615
56.0585
56.0555
56.0525
56.0495
56.0465
56.0435
56.0405
56.0376
56.0346
56.0316
56.0286
56.0256
56.0226
56.0196
56.0166
56.0137
56.0107
56.0077
56.0047
56.0017
55.9987
55.9958
55.9928
55.9898
55.9868
55.9838
55.9809
55.9779
55.9749
55.9719
55.9689
55.966
55.963
55.96
55.957
55.9541
55.9511
55.9481
55.9451
55.9422
55.9392
55.9362
55.9332
55.9303
55.9273
55.9243
55.9213
55.9184
55.9154
55.9124
55.9095
55.9065
55.9035
55.9006
55.8976
55.8946
55.8917
55.8887
55.8857
55.8827
55.8798
55.8768
55.8739
55.8709
55.8679
55.865
55.862
55.859
55.8561
55.8531
55.8501
55.8472
55.8442
55.8413
55.8383
55.8353
55.8324
55.8294
55.8265
55.8235
55.8205
55.8176
55.8146
55.8117
55.8087
55.8058
55.8028
55.7998
55.7969
55.7939
55.791
55.788
55.7851
55.7821
55.7792
55.7762
55.7733
55.7703
55.7674
55.7644
55.7615
55.7585
55.7556
55.7526
55.7497
55.7467
55.7438
55.7408
55.7379
55.7349
55.732
55.729
55.7261
55.7231
55.7202
55.7172
55.7143
55.7114
55.7084
55.7055
55.7025
55.6996
55.6966
55.6937
55.6908
55.6878
55.6849
55.6819
55.679
55.6761
55.6731
55.6702
55.6672
55.6643
55.6614
55.6584
55.6555
55.6526
55.6496
55.6467
55.6438
55.6408
55.6379
55.635
55.632
55.6291
55.6262
55.6232
55.6203
55.6174
55.6144
55.6115
55.6086
55.6056
55.6027
55.5998
55.5969
55.5939
55.591
55.5881
55.5852
55.5822
55.5793
55.5764
55.5734
55.5705
55.5676
55.5647
55.5618
55.5588
55.5559
55.553
55.5501
55.5471
55.5442
55.5413
55.5384
55.5355
55.5325
55.5296
55.5267
55.5238
55.5209
55.5179
55.515
55.5121
55.5092
55.5063
55.5034
55.5004
55.4975
55.4946
55.4917
55.4888
55.4859
55.483
55.4801
55.4771
55.4742
55.4713
55.4684
55.4655
55.4626
55.4597
55.4568
55.4539
55.451
55.448
55.4451
55.4422
55.4393
55.4364
55.4335
55.4306
55.4277
55.4248
55.4219
55.419
55.4161
55.4132
55.4103
55.4074
55.4045
55.4016
55.3987
55.3958
55.3929
55.39
55.3871
55.3842
55.3813
55.3784
55.3755
55.3726
55.3697
55.3668
55.3639
55.361
55.3581
55.3552
55.3523
55.3494
55.3465
55.3436
55.3407
55.3378
55.3349
55.332
55.3291
55.3263
55.3234
55.3205
55.3176
55.3147
55.3118
55.3089
55.306
55.3031
55.3003
55.2974
55.2945
55.2916
55.2887
55.2858
55.2829
55.28
55.2772
55.2743
55.2714
55.2685
55.2656
55.2627
55.2599
55.257
55.2541
55.2512
55.2483
55.2455
55.2426
55.2397
55.2368
55.2339
55.2311
55.2282
55.2253
55.2224
55.2195
55.2167
55.2138
55.2109
55.208
55.2052
55.2023
55.1994
55.1965
55.1937
55.1908
55.1879
55.1851
55.1822
55.1793
55.1764
55.1736
55.1707
55.1678
55.165
55.1621
55.1592
55.1563
55.1535
55.1506
55.1477
55.1449
55.142
55.1391
55.1363
55.1334
55.1305
55.1277
55.1248
55.122
55.1191
55.1162
55.1134
55.1105
55.1076
55.1048
55.1019
55.0991
55.0962
55.0933
55.0905
55.0876
55.0848
55.0819
55.079
55.0762
55.0733
55.0705
55.0676
55.0648
55.0619
55.0591
55.0562
55.0533
55.0505
55.0476
55.0448
55.0419
55.0391
55.0362
55.0334
55.0305
55.0277
55.0248
55.022
55.0191
55.0163
55.0134
55.0106
55.0077
55.0049
55.002
54.9992
54.9963
54.9935
54.9906
54.9878
54.985
54.9821
54.9793
54.9764
54.9736
54.9707
54.9679
54.965
54.9622
54.9594
54.9565
54.9537
54.9508
54.948
54.9452
54.9423
54.9395
54.9366
54.9338
54.931
54.9281
54.9253
54.9225
54.9196
54.9168
54.914
54.9111
54.9083
54.9054
54.9026
54.8998
54.8969
54.8941
54.8913
54.8885
54.8856
54.8828
54.88
54.8771
54.8743
54.8715
54.8686
54.8658
54.863
54.8602
54.8573
54.8545
54.8517
54.8488
54.846
54.8432
54.8404
54.8375
54.8347
54.8319
54.8291
54.8263
54.8234
54.8206
54.8178
54.815
54.8121
54.8093
54.8065
54.8037
54.8009
54.798
54.7952
54.7924
54.7896
54.7868
54.7839
54.7811
54.7783
54.7755
54.7727
54.7699
54.7671
54.7642
54.7614
54.7586
54.7558
54.753
54.7502
54.7474
54.7445
54.7417
54.7389
54.7361
54.7333
54.7305
54.7277
54.7249
54.7221
54.7193
54.7164
54.7136
54.7108
54.708
54.7052
54.7024
54.6996
54.6968
54.694
54.6912
54.6884
54.6856
54.6828
54.68
54.6772
54.6744
54.6716
54.6688
54.666
54.6632
54.6604
54.6576
54.6548
54.652
54.6492
54.6464
54.6436
54.6408
54.638
54.6352
54.6324
54.6296
54.6268
54.624
54.6212
54.6184
54.6156
54.6128
54.61
54.6072
54.6044
54.6016
54.5988
54.5961
54.5933
54.5905
54.5877
54.5849
54.5821
54.5793
54.5765
54.5737
54.5709
54.5682
54.5654
54.5626
54.5598
54.557
54.5542
54.5514
54.5487
54.5459
54.5431
54.5403
54.5375
54.5347
54.532
54.5292
54.5264
54.5236
54.5208
54.518
54.5153
54.5125
54.5097
54.5069
54.5041
54.5014
54.4986
54.4958
54.493
54.4903
54.4875
54.4847
54.4819
54.4792
54.4764
54.4736
54.4708
54.4681
54.4653
54.4625
54.4597
54.457
54.4542
54.4514
54.4486
54.4459
54.4431
54.4403
54.4376
54.4348
54.432
54.4293
54.4265
54.4237
54.421
54.4182
54.4154
54.4127
54.4099
54.4071
54.4044
54.4016
54.3988
54.3961
54.3933
54.3905
54.3878
54.385
54.3823
54.3795
54.3767
54.374
54.3712
54.3684
54.3657
54.3629
54.3602
54.3574
54.3547
54.3519
54.3491
54.3464
54.3436
54.3409
54.3381
54.3354
54.3326
54.3298
54.3271
54.3243
54.3216
54.3188
54.3161
54.3133
54.3106
54.3078
54.3051
54.3023
54.2996
54.2968
54.2941
54.2913
54.2886
54.2858
54.2831
54.2803
54.2776
54.2748
54.2721
54.2693
54.2666
54.2638
54.2611
54.2584
54.2556
54.2529
54.2501
54.2474
54.2446
54.2419
54.2392
54.2364
54.2337
54.2309
54.2282
54.2254
54.2227
54.22
54.2172
54.2145
54.2118
54.209
54.2063
54.2035
54.2008
54.1981
54.1953
54.1926
54.1899
54.1871
54.1844
54.1817
54.1789
54.1762
54.1735
54.1707
54.168
54.1653
54.1625
54.1598
54.1571
54.1543
54.1516
54.1489
54.1461
54.1434
54.1407
54.138
54.1352
54.1325
54.1298
54.1271
54.1243
54.1216
54.1189
54.1161
54.1134
54.1107
54.108
54.1053
54.1025
54.0998
54.0971
54.0944
54.0916
54.0889
54.0862
54.0835
54.0808
54.078
54.0753
54.0726
54.0699
54.0672
54.0644
54.0617
54.059
54.0563
54.0536
54.0509
54.0481
54.0454
54.0427
54.04
54.0373
54.0346
54.0319
54.0291
54.0264
54.0237
54.021
54.0183
54.0156
54.0129
54.0102
54.0075
54.0047
54.002
53.9993
53.9966
53.9939
53.9912
53.9885
53.9858
53.9831
53.9804
53.9777
53.975
53.9723
53.9696
53.9669
53.9642
53.9614
53.9587
53.956
53.9533
53.9506
53.9479
53.9452
53.9425
53.9398
53.9371
53.9344
53.9317
53.929
53.9263
53.9236
53.9209
53.9182
53.9155
53.9129
53.9102
53.9075
53.9048
53.9021
53.8994
53.8967
53.894
53.8913
53.8886
53.8859
53.8832
53.8805
53.8778
53.8751
53.8724
53.8698
53.8671
53.8644
53.8617
53.859
53.8563
53.8536
53.8509
53.8482
53.8456
53.8429
53.8402
53.8375
53.8348
53.8321
53.8294
53.8268
53.8241
53.8214
53.8187
53.816
53.8133
53.8107
53.808
53.8053
53.8026
53.7999
53.7973
53.7946
53.7919
53.7892
53.7865
53.7839
53.7812
53.7785
53.7758
53.7731
53.7705
53.7678
53.7651
53.7624
53.7598
53.7571
53.7544
53.7517
53.7491
53.7464
53.7437
53.7411
53.7384
53.7357
53.733
53.7304
53.7277
53.725
53.7224
53.7197
53.717
53.7143
53.7117
53.709
53.7063
53.7037
53.701
53.6983
53.6957
53.693
53.6903
53.6877
53.685
53.6824
53.6797
53.677
53.6744
53.6717
53.669
53.6664
53.6637
53.661
53.6584
53.6557
53.6531
53.6504
53.6477
53.6451
53.6424
53.6398
53.6371
53.6345
53.6318
53.6291
53.6265
53.6238
53.6212
53.6185
53.6159
53.6132
53.6106
53.6079
53.6053
53.6026
53.5999
53.5973
53.5946
53.592
53.5893
53.5867
53.584
53.5814
53.5787
53.5761
53.5734
53.5708
53.5681
53.5655
53.5628
53.5602
53.5576
53.5549
53.5523
53.5496
53.547
53.5443
53.5417
53.539
53.5364
53.5338
53.5311
53.5285
53.5258
53.5232
53.5205
53.5179
53.5153
53.5126
53.51
53.5073
53.5047
53.5021
53.4994
53.4968
53.4941
53.4915
53.4889
53.4862
53.4836
53.481
53.4783
53.4757
53.4731
53.4704
53.4678
53.4652
53.4625
53.4599
53.4573
53.4546
53.452
53.4494
53.4467
53.4441
53.4415
53.4388
53.4362
53.4336
53.431
53.4283
53.4257
53.4231
53.4204
53.4178
53.4152
53.4126
53.4099
53.4073
53.4047
53.4021
53.3994
53.3968
53.3942
53.3916
53.3889
53.3863
53.3837
53.3811
53.3785
53.3758
53.3732
53.3706
53.368
53.3654
53.3627
53.3601
53.3575
53.3549
53.3523
53.3497
53.347
53.3444
53.3418
53.3392
53.3366
53.334
53.3313
53.3287
53.3261
53.3235
53.3209
53.3183
53.3157
53.3131
53.3104
53.3078
53.3052
53.3026
53.3
53.2974
53.2948
53.2922
53.2896
53.287
53.2843
53.2817
53.2791
53.2765
53.2739
53.2713
53.2687
53.2661
53.2635
53.2609
53.2583
53.2557
53.2531
53.2505
53.2479
53.2453
53.2427
53.2401
53.2375
53.2349
53.2323
53.2297
53.2271
53.2245
53.2219
53.2193
53.2167
53.2141
53.2115
53.2089
53.2063
53.2037
53.2011
53.1985
53.1959
53.1933
53.1907
53.1881
53.1855
53.1829
53.1803
53.1777
53.1751
53.1726
53.17
53.1674
53.1648
53.1622
53.1596
53.157
53.1544
53.1518
53.1492
53.1467
53.1441
53.1415
53.1389
53.1363
53.1337
53.1311
53.1286
53.126
53.1234
53.1208
53.1182
53.1156
53.113
53.1105
53.1079
53.1053
53.1027
53.1001
53.0976
53.095
53.0924
53.0898
53.0872
53.0847
53.0821
53.0795
53.0769
53.0743
53.0718
53.0692
53.0666
53.064
53.0615
53.0589
53.0563
53.0537
53.0512
53.0486
53.046
53.0434
53.0409
53.0383
53.0357
53.0331
53.0306
53.028
53.0254
53.0229
53.0203
53.0177
53.0151
53.0126
53.01
53.0074
53.0049
53.0023
52.9997
52.9972
52.9946
52.992
52.9895
52.9869
52.9843
52.9818
52.9792
52.9767
52.9741
52.9715
52.969
52.9664
52.9638
52.9613
52.9587
52.9562
52.9536
52.951
52.9485
52.9459
52.9434
52.9408
52.9382
52.9357
52.9331
52.9306
52.928
52.9255
52.9229
52.9203
52.9178
52.9152
52.9127
52.9101
52.9076
52.905
52.9025
52.8999
52.8974
52.8948
52.8923
52.8897
52.8871
52.8846
52.882
52.8795
52.8769
52.8744
52.8719
52.8693
52.8668
52.8642
52.8617
52.8591
52.8566
52.854
52.8515
52.8489
52.8464
52.8438
52.8413
52.8388
52.8362
52.8337
52.8311
52.8286
52.826
52.8235
52.821
52.8184
52.8159
52.8133
52.8108
52.8083
52.8057
52.8032
52.8006
52.7981
52.7956
52.793
52.7905
52.7879
52.7854
52.7829
52.7803
52.7778
52.7753
52.7727
52.7702
52.7677
52.7651
52.7626
52.7601
52.7575
52.755
52.7525
52.7499
52.7474
52.7449
52.7423
52.7398
52.7373
52.7348
52.7322
52.7297
52.7272
52.7246
52.7221
52.7196
52.7171
52.7145
52.712
52.7095
52.707
52.7044
52.7019
52.6994
52.6969
52.6943
52.6918
52.6893
52.6868
52.6843
52.6817
52.6792
52.6767
52.6742
52.6717
52.6691
52.6666
52.6641
52.6616
52.6591
52.6565
52.654
52.6515
52.649
52.6465
52.644
52.6414
52.6389
52.6364
52.6339
52.6314
52.6289
52.6264
52.6238
52.6213
52.6188
52.6163
52.6138
52.6113
52.6088
52.6063
52.6038
52.6012
52.5987
52.5962
52.5937
52.5912
52.5887
52.5862
52.5837
52.5812
52.5787
52.5762
52.5737
52.5712
52.5687
52.5661
52.5636
52.5611
52.5586
52.5561
52.5536
52.5511
52.5486
52.5461
52.5436
52.5411
52.5386
52.5361
52.5336
52.5311
52.5286
52.5261
52.5236
52.5211
52.5186
52.5161
52.5136
52.5111
52.5086
52.5061
52.5037
52.5012
52.4987
52.4962
52.4937
52.4912
52.4887
52.4862
52.4837
52.4812
52.4787
52.4762
52.4737
52.4712
52.4688
52.4663
52.4638
52.4613
52.4588
52.4563
52.4538
52.4513
52.4488
52.4464
52.4439
52.4414
52.4389
52.4364
52.4339
52.4314
52.429
52.4265
52.424
52.4215
52.419
52.4165
52.4141
52.4116
52.4091
52.4066
52.4041
52.4016
52.3992
52.3967
52.3942
52.3917
52.3893
52.3868
52.3843
52.3818
52.3793
52.3769
52.3744
52.3719
52.3694
52.367
52.3645
52.362
52.3595
52.3571
52.3546
52.3521
52.3496
52.3472
52.3447
52.3422
52.3398
52.3373
52.3348
52.3323
52.3299
52.3274
52.3249
52.3225
52.32
52.3175
52.3151
52.3126
52.3101
52.3077
52.3052
52.3027
52.3003
52.2978
52.2953
52.2929
52.2904
52.2879
52.2855
52.283
52.2805
52.2781
52.2756
52.2732
52.2707
52.2682
52.2658
52.2633
52.2608
52.2584
52.2559
52.2535
52.251
52.2486
52.2461
52.2436
52.2412
52.2387
52.2363
52.2338
52.2314
52.2289
52.2264
52.224
52.2215
52.2191
52.2166
52.2142
52.2117
52.2093
52.2068
52.2044
52.2019
52.1995
52.197
52.1946
52.1921
52.1897
52.1872
52.1848
52.1823
52.1799
52.1774
52.175
52.1725
52.1701
52.1676
52.1652
52.1627
52.1603
52.1579
52.1554
52.153
52.1505
52.1481
52.1456
52.1432
52.1407
52.1383
52.1359
52.1334
52.131
52.1285
52.1261
52.1237
52.1212
52.1188
52.1163
52.1139
52.1115
52.109
52.1066
52.1042
52.1017
52.0993
52.0968
52.0944
52.092
52.0895
52.0871
52.0847
52.0822
52.0798
52.0774
52.0749
52.0725
52.0701
52.0676
52.0652
52.0628
52.0604
52.0579
52.0555
52.0531
52.0506
52.0482
52.0458
52.0433
52.0409
52.0385
52.0361
52.0336
52.0312
52.0288
52.0264
52.0239
52.0215
52.0191
52.0167
52.0142
52.0118
52.0094
52.007
52.0045
52.0021
51.9997
51.9973
51.9949
51.9924
51.99
51.9876
51.9852
51.9828
51.9803
51.9779
51.9755
51.9731
51.9707
51.9683
51.9658
51.9634
51.961
51.9586
51.9562
51.9538
51.9513
51.9489
51.9465
51.9441
51.9417
51.9393
51.9369
51.9345
51.932
51.9296
51.9272
51.9248
51.9224
51.92
51.9176
51.9152
51.9128
51.9104
51.9079
51.9055
51.9031
51.9007
51.8983
51.8959
51.8935
51.8911
51.8887
51.8863
51.8839
51.8815
51.8791
51.8767
51.8743
51.8719
51.8695
51.8671
51.8647
51.8623
51.8599
51.8575
51.8551
51.8527
51.8503
51.8479
51.8455
51.8431
51.8407
51.8383
51.8359
51.8335
51.8311
51.8287
51.8263
51.8239
51.8215
51.8191
51.8167
51.8143
51.8119
51.8095
51.8071
51.8047
51.8023
51.8
51.7976
51.7952
51.7928
51.7904
51.788
51.7856
51.7832
51.7808
51.7784
51.7761
51.7737
51.7713
51.7689
51.7665
51.7641
51.7617
51.7593
51.757
51.7546
51.7522
51.7498
51.7474
51.745
51.7427
51.7403
51.7379
51.7355
51.7331
51.7307
51.7284
51.726
51.7236
51.7212
51.7188
51.7165
51.7141
51.7117
51.7093
51.7069
51.7046
51.7022
51.6998
51.6974
51.6951
51.6927
51.6903
51.6879
51.6856
51.6832
51.6808
51.6784
51.6761
51.6737
51.6713
51.6689
51.6666
51.6642
51.6618
51.6595
51.6571
51.6547
51.6523
51.65
51.6476
51.6452
51.6429
51.6405
51.6381
51.6358
51.6334
51.631
51.6287
51.6263
51.6239
51.6216
51.6192
51.6168
51.6145
51.6121
51.6097
51.6074
51.605
51.6027
51.6003
51.5979
51.5956
51.5932
51.5908
51.5885
51.5861
51.5838
51.5814
51.579
51.5767
51.5743
51.572
51.5696
51.5673
51.5649
51.5625
51.5602
51.5578
51.5555
51.5531
51.5508
51.5484
51.5461
51.5437
51.5414
51.539
51.5366
51.5343
51.5319
51.5296
51.5272
51.5249
51.5225
51.5202
51.5178
51.5155
51.5131
51.5108
51.5084
51.5061
51.5037
51.5014
51.4991
51.4967
51.4944
51.492
51.4897
51.4873
51.485
51.4826
51.4803
51.4779
51.4756
51.4733
51.4709
51.4686
51.4662
51.4639
51.4615
51.4592
51.4569
51.4545
51.4522
51.4498
51.4475
51.4452
51.4428
51.4405
51.4382
51.4358
51.4335
51.4311
51.4288
51.4265
51.4241
51.4218
51.4195
51.4171
51.4148
51.4125
51.4101
51.4078
51.4055
51.4031
51.4008
51.3985
51.3961
51.3938
51.3915
51.3891
51.3868
51.3845
51.3821
51.3798
51.3775
51.3752
51.3728
51.3705
51.3682
51.3659
51.3635
51.3612
51.3589
51.3565
51.3542
51.3519
51.3496
51.3472
51.3449
51.3426
51.3403
51.338
51.3356
51.3333
51.331
51.3287
51.3263
51.324
51.3217
51.3194
51.3171
51.3147
51.3124
51.3101
51.3078
51.3055
51.3032
51.3008
51.2985
51.2962
51.2939
51.2916
51.2893
51.2869
51.2846
51.2823
51.28
51.2777
51.2754
51.2731
51.2707
51.2684
51.2661
51.2638
51.2615
51.2592
51.2569
51.2546
51.2523
51.25
51.2476
51.2453
51.243
51.2407
51.2384
51.2361
51.2338
51.2315
51.2292
51.2269
51.2246
51.2223
51.22
51.2177
51.2154
51.213
51.2107
51.2084
51.2061
51.2038
51.2015
51.1992
51.1969
51.1946
51.1923
51.19
51.1877
51.1854
51.1831
51.1808
51.1785
51.1762
51.1739
51.1716
51.1693
51.167
51.1647
51.1625
51.1602
51.1579
51.1556
51.1533
51.151
51.1487
51.1464
51.1441
51.1418
51.1395
51.1372
51.1349
51.1326
51.1303
51.1281
51.1258
51.1235
51.1212
51.1189
51.1166
51.1143
51.112
51.1097
51.1074
51.1052
51.1029
51.1006
51.0983
51.096
51.0937
51.0914
51.0892
51.0869
51.0846
51.0823
51.08
51.0777
51.0755
51.0732
51.0709
51.0686
51.0663
51.064
51.0618
51.0595
51.0572
51.0549
51.0526
51.0504
51.0481
51.0458
51.0435
51.0413
51.039
51.0367
51.0344
51.0321
51.0299
51.0276
51.0253
51.023
51.0208
51.0185
51.0162
51.0139
51.0117
51.0094
51.0071
51.0049
51.0026
51.0003
50.998
50.9958
50.9935
50.9912
50.989
50.9867
50.9844
50.9822
50.9799
50.9776
50.9753
50.9731
50.9708
50.9685
50.9663
50.964
50.9618
50.9595
50.9572
50.955
50.9527
50.9504
50.9482
50.9459
50.9436
50.9414
50.9391
50.9369
50.9346
50.9323
50.9301
50.9278
50.9255
50.9233
50.921
50.9188
50.9165
50.9143
50.912
50.9097
50.9075
50.9052
50.903
50.9007
50.8985
50.8962
50.8939
50.8917
50.8894
50.8872
50.8849
50.8827
50.8804
50.8782
50.8759
50.8737
50.8714
50.8692
50.8669
50.8647
50.8624
50.8602
50.8579
50.8557
50.8534
50.8512
50.8489
50.8467
50.8444
50.8422
50.8399
50.8377
50.8354
50.8332
50.8309
50.8287
50.8265
50.8242
50.822
50.8197
50.8175
50.8152
50.813
50.8107
50.8085
50.8063
50.804
50.8018
50.7995
50.7973
50.7951
50.7928
50.7906
50.7883
50.7861
50.7839
50.7816
50.7794
50.7772
50.7749
50.7727
50.7704
50.7682
50.766
50.7637
50.7615
50.7593
50.757
50.7548
50.7526
50.7503
50.7481
50.7459
50.7436
50.7414
50.7392
50.7369
50.7347
50.7325
50.7303
50.728
50.7258
50.7236
50.7213
50.7191
50.7169
50.7147
50.7124
50.7102
50.708
50.7057
50.7035
50.7013
50.6991
50.6968
50.6946
50.6924
50.6902
50.6879
50.6857
50.6835
50.6813
50.6791
50.6768
50.6746
50.6724
50.6702
50.668
50.6657
50.6635
50.6613
50.6591
50.6569
50.6546
50.6524
50.6502
50.648
50.6458
50.6436
50.6413
50.6391
50.6369
50.6347
50.6325
50.6303
50.628
50.6258
50.6236
50.6214
50.6192
50.617
50.6148
50.6126
50.6103
50.6081
50.6059
50.6037
50.6015
50.5993
50.5971
50.5949
50.5927
50.5905
50.5882
50.586
50.5838
50.5816
50.5794
50.5772
50.575
50.5728
50.5706
50.5684
50.5662
50.564
50.5618
50.5596
50.5574
50.5552
50.553
50.5508
50.5486
50.5464
50.5442
50.542
50.5398
50.5376
50.5354
50.5332
50.531
50.5288
50.5266
50.5244
50.5222
50.52
50.5178
50.5156
50.5134
50.5112
50.509
50.5068
50.5046
50.5024
50.5002
50.498
50.4958
50.4936
50.4914
50.4892
50.4871
50.4849
50.4827
50.4805
50.4783
50.4761
50.4739
50.4717
50.4695
50.4673
50.4651
50.463
50.4608
50.4586
50.4564
50.4542
50.452
50.4498
50.4477
50.4455
50.4433
50.4411
50.4389
50.4367
50.4345
50.4324
50.4302
50.428
50.4258
50.4236
50.4214
50.4193
50.4171
50.4149
50.4127
50.4105
50.4084
50.4062
50.404
50.4018
50.3996
50.3975
50.3953
50.3931
50.3909
50.3888
50.3866
50.3844
50.3822
50.3801
50.3779
50.3757
50.3735
50.3714
50.3692
50.367
50.3648
50.3627
50.3605
50.3583
50.3561
50.354
50.3518
50.3496
50.3475
50.3453
50.3431
50.341
50.3388
50.3366
50.3344
50.3323
50.3301
50.3279
50.3258
50.3236
50.3214
50.3193
50.3171
50.3149
50.3128
50.3106
50.3085
50.3063
50.3041
50.302
50.2998
50.2976
50.2955
50.2933
50.2911
50.289
50.2868
50.2847
50.2825
50.2803
50.2782
50.276
50.2739
50.2717
50.2696
50.2674
50.2652
50.2631
50.2609
50.2588
50.2566
50.2545
50.2523
50.2501
50.248
50.2458
50.2437
50.2415
50.2394
50.2372
50.2351
50.2329
50.2308
50.2286
50.2265
50.2243
50.2222
50.22
50.2179
50.2157
50.2136
50.2114
50.2093
50.2071
50.205
50.2028
50.2007
50.1985
50.1964
50.1942
50.1921
50.1899
50.1878
50.1856
50.1835
50.1814
50.1792
50.1771
50.1749
50.1728
50.1706
50.1685
50.1664
50.1642
50.1621
50.1599
50.1578
50.1557
50.1535
50.1514
50.1492
50.1471
50.145
50.1428
50.1407
50.1385
50.1364
50.1343
50.1321
50.13
50.1279
50.1257
50.1236
50.1215
50.1193
50.1172
50.1151
50.1129
50.1108
50.1087
50.1065
50.1044
50.1023
50.1001
50.098
50.0959
50.0937
50.0916
50.0895
50.0873
50.0852
50.0831
50.081
50.0788
50.0767
50.0746
50.0725
50.0703
50.0682
50.0661
50.0639
50.0618
50.0597
50.0576
50.0554
50.0533
50.0512
50.0491
50.047
50.0448
50.0427
50.0406
50.0385
50.0363
50.0342
50.0321
50.03
50.0279
50.0257
50.0236
50.0215
50.0194
50.0173
50.0152