# vtk DataFile Version 2.0
vtk output
ASCII
DATASET STRUCTURED_GRID
DIMENSIONS 50 10 30
POINTS 15000 float
0 0 0
1 0 0
2 0 0
3 0 0
4 0 0
5 0 0
6 0 0
7 0 0
8 0 0
9 0 0
10 0 0
11 0 0
12 0 0
13 0 0
14 0 0
15 0 0
16 0 0
17 0 0
18 0 0
19 0 0
20 0 0
21 0 0
22 0 0
23 0 0
24 0 0
25 0 0
26 0 0
27 0 0
28 0 0
29 0 0
30 0 0
31 0 0
32 0 0
33 0 0
34 0 0
35 0 0
36 0 0
37 0 0
38 0 0
39 0 0
40 0 0
41 0 0
42 0 0
43 0 0
44 0 0
45 0 0
46 0 0
47 0 0
48 0 0
49 0 0
0 1 0
1 1 0
2 1 0
3 1 0
4 1 0
5 1 0
6 1 0
7 1 0
8 1 0
9 1 0
10 1 0
11 1 0
12 1 0
13 1 0
14 1 0
15 1 0
16 1 0
17 1 0
18 1 0
19 1 0
20 1 0
21 1 0
22 1 0
23 1 0
24 1 0
25 1 0
26 1 0
27 1 0
28 1 0
29 1 0
30 1 0
31 1 0
32 1 0
33 1 0
34 1 0
35 1 0
36 1 0
37 1 0
38 1 0
39 1 0
40 1 0
41 1 0
42 1 0
43 1 0
44 1 0
45 1 0
46 1 0
47 1 0
48 1 0
49 1 0
0 2 0
1 2 0
2 2 0
3 2 0
4 2 0
5 2 0
6 2 0
7 2 0
8 2 0
9 2 0
10 2 0
11 2 0
12 2 0
13 2 0
14 2 0
15 2 0
16 2 0
17 2 0
18 2 0
19 2 0
20 2 0
21 2 0
22 2 0
23 2 0
24 2 0
25 2 0
26 2 0
27 2 0
28 2 0
29 2 0
30 2 0
31 2 0
32 2 0
33 2 0
34 2 0
35 2 0
36 2 0
37 2 0
38 2 0
39 2 0
40 2 0
41 2 0
42 2 0
43 2 0
44 2 0
45 2 0
46 2 0
47 2 0
48 2 0
49 2 0
0 3 0
1 3 0
2 3 0
3 3 0
4 3 0
5 3 0
6 3 0
7 3 0
8 3 0
9 3 0
10 3 0
11 3 0
12 3 0
13 3 0
14 3 0
15 3 0
16 3 0
17 3 0
18 3 0
19 3 0
20 3 0
21 3 0
22 3 0
23 3 0
24 3 0
25 3 0
26 3 0
27 3 0
28 3 0
29 3 0
30 3 0
31 3 0
32 3 0
33 3 0
34 3 0
35 3 0
36 3 0
37 3 0
38 3 0
39 3 0
40 3 0
41 3 0
42 3 0
43 3 0
44 3 0
45 3 0
46 3 0
47 3 0
48 3 0
49 3 0
0 4 0
1 4 0
2 4 0
3 4 0
4 4 0
5 4 0
6 4 0
7 4 0
8 4 0
9 4 0
10 4 0
11 4 0
12 4 0
13 4 0
14 4 0
15 4 0
16 4 0
17 4 0
18 4 0
19 4 0
20 4 0
21 4 0
22 4 0
23 4 0
24 4 0
25 4 0
26 4 0
27 4 0
28 4 0
29 4 0
30 4 0
31 4 0
32 4 0
33 4 0
34 4 0
35 4 0
36 4 0
37 4 0
38 4 0
39 4 0
40 4 0
41 4 0
42 4 0
43 4 0
44 4 0
45 4 0
46 4 0
47 4 0
48 4 0
49 4 0
0 5 0
1 5 0
2 5 0
3 5 0
4 5 0
5 5 0
6 5 0
7 5 0
8 5 0
9 5 0
10 5 0
11 5 0
12 5 0
13 5 0
14 5 0
15 5 0
16 5 0
17 5 0
18 5 0
19 5 0
20 5 0
21 5 0
22 5 0
23 5 0
24 5 0
25 5 0
26 5 0
27 5 0
28 5 0
29 5 0
30 5 0
31 5 0
32 5 0
33 5 0
34 5 0
35 5 0
36 5 0
37 5 0
38 5 0
39 5 0
40 5 0
41 5 0
42 5 0
43 5 0
44 5 0
45 5 0
46 5 0
47 5 0
48 5 0
49 5 0
0 6 0
1 6 0
2 6 0
3 6 0
4 6 0
5 6 0
6 6 0
7 6 0
8 6 0
9 6 0
10 6 0
11 6 0
12 6 0
13 6 0
14 6 0
15 6 0
16 6 0
17 6 0
18 6 0
19 6 0
20 6 0
21 6 0
22 6 0
23 6 0
24 6 0
25 6 0
26 6 0
27 6 0
28 6 0
29 6 0
30 6 0
31 6 0
32 6 0
33 6 0
34 6 0
35 6 0
36 6 0
37 6 0
38 6 0
39 6 0
40 6 0
41 6 0
42 6 0
43 6 0
44 6 0
45 6 0
46 6 0
47 6 0
48 6 0
49 6 0
0 7 0
1 7 0
2 7 0
3 7 0
4 7 0
5 7 0
6 7 0
7 7 0
8 7 0
9 7 0
10 7 0
11 7 0
12 7 0
13 7 0
14 7 0
15 7 0
16 7 0
17 7 0
18 7 0
19 7 0
20 7 0
21 7 0
22 7 0
23 7 0
24 7 0
25 7 0
26 7 0
27 7 0
28 7 0
29 7 0
30 7 0
31 7 0
32 7 0
33 7 0
34 7 0
35 7 0
36 7 0
37 7 0
38 7 0
39 7 0
40 7 0
41 7 0
42 7 0
43 7 0
44 7 0
45 7 0
46 7 0
47 7 0
48 7 0
49 7 0
0 8 0
1 8 0
2 8 0
3 8 0
4 8 0
5 8 0
6 8 0
7 8 0
8 8 0
9 8 0
10 8 0
11 8 0
12 8 0
13 8 0
14 8 0
15 8 0
16 8 0
17 8 0
18 8 0
19 8 0
20 8 0
21 8 0
22 8 0
23 8 0
24 8 0
25 8 0
26 8 0
27 8 0
28 8 0
29 8 0
30 8 0
31 8 0
32 8 0
33 8 0
34 8 0
35 8 0
36 8 0
37 8 0
38 8 0
39 8 0
40 8 0
41 8 0
42 8 0
43 8 0
44 8 0
45 8 0
46 8 0
47 8 0
48 8 0
49 8 0
0 9 0
1 9 0
2 9 0
3 9 0
4 9 0
5 9 0
6 9 0
7 9 0
8 9 0
9 9 0
10 9 0
11 9 0
12 9 0
13 9 0
14 9 0
15 9 0
16 9 0
17 9 0
18 9 0
19 9 0
20 9 0
21 9 0
22 9 0
23 9 0
24 9 0
25 9 0
26 9 0
27 9 0
28 9 0
29 9 0
30 9 0
31 9 0
32 9 0
33 9 0
34 9 0
35 9 0
36 9 0
37 9 0
38 9 0
39 9 0
40 9 0
41 9 0
42 9 0
43 9 0
44 9 0
45 9 0
46 9 0
47 9 0
48 9 0
49 9 0
0 0 1
1 0 1
2 0 1
3 0 1
4 0 1
5 0 1
6 0 1
7 0 1
8 0 1
9 0 1
10 0 1
11 0 1
12 0 1
13 0 1
14 0 1
15 0 1
16 0 1
17 0 1
18 0 1
19 0 1
20 0 1
21 0 1
22 0 1
23 0 1
24 0 1
25 0 1
26 0 1
27 0 1
28 0 1
29 0 1
30 0 1
31 0 1
32 0 1
33 0 1
34 0 1
35 0 1
36 0 1
37 0 1
38 0 1
39 0 1
40 0 1
41 0 1
42 0 1
43 0 1
44 0 1
45 0 1
46 0 1
47 0 1
48 0 1
49 0 1
0 1 1
1 1 1
2 1 1
3 1 1
4 1 1
5 1 1
6 1 1
7 1 1
8 1 1
9 1 1
10 1 1
11 1 1
12 1 1
13 1 1
14 1 1
15 1 1
16 1 1
17 1 1
18 1 1
19 1 1
20 1 1
21 1 1
22 1 1
23 1 1
24 1 1
25 1 1
26 1 1
27 1 1
28 1 1
29 1 1
30 1 1
31 1 1
32 1 1
33 1 1
34 1 1
35 1 1
36 1 1
37 1 1
38 1 1
39 1 1
40 1 1
41 1 1
42 1 1
43 1 1
44 1 1
45 1 1
46 1 1
47 1 1
48 1 1
49 1 1
0 2 1
1 2 1
2 2 1
3 2 1
4 2 1
5 2 1
6 2 1
7 2 1
8 2 1
9 2 1
10 2 1
11 2 1
12 2 1
13 2 1
14 2 1
15 2 1
16 2 1
17 2 1
18 2 1
19 2 1
20 2 1
21 2 1
22 2 1
23 2 1
24 2 1
25 2 1
26 2 1
27 2 1
28 2 1
29 2 1
30 2 1
31 2 1
32 2 1
33 2 1
34 2 1
35 2 1
36 2 1
37 2 1
38 2 1
39 2 1
40 2 1
41 2 1
42 2 1
43 2 1
44 2 1
45 2 1
46 2 1
47 2 1
48 2 1
49 2 1
0 3 1
1 3 1
2 3 1
3 3 1
4 3 1
5 3 1
6 3 1
7 3 1
8 3 1
9 3 1
10 3 1
11 3 1
12 3 1
13 3 1
14 3 1
15 3 1
16 3 1
17 3 1
18 3 1
19 3 1
20 3 1
21 3 1
22 3 1
23 3 1
24 3 1
25 3 1
26 3 1
27 3 1
28 3 1
29 3 1
30 3 1
31 3 1
32 3 1
33 3 1
34 3 1
35 3 1
36 3 1
37 3 1
38 3 1
39 3 1
40 3 1
41 3 1
42 3 1
43 3 1
44 3 1
45 3 1
46 3 1
47 3 1
48 3 1
49 3 1
0 4 1
1 4 1
2 4 1
3 4 1
4 4 1
5 4 1
6 4 1
7 4 1
8 4 1
9 4 1
10 4 1
11 4 1
12 4 1
13 4 1
14 4 1
15 4 1
16 4 1
17 4 1
18 4 1
19 4 1
20 4 1
21 4 1
22 4 1
23 4 1
24 4 1
25 4 1
26 4 1
27 4 1
28 4 1
29 4 1
30 4 1
31 4 1
32 4 1
33 4 1
34 4 1
35 4 1
36 4 1
37 4 1
38 4 1
39 4 1
40 4 1
41 4 1
42 4 1
43 4 1
44 4 1
45 4 1
46 4 1
47 4 1
48 4 1
49 4 1
0 5 1
1 5 1
2 5 1
3 5 1
4 5 1
5 5 1
6 5 1
7 5 1
8 5 1
9 5 1
10 5 1
11 5 1
12 5 1
13 5 1
14 5 1
15 5 1
16 5 1
17 5 1
18 5 1
19 5 1
20 5 1
21 5 1
22 5 1
23 5 1
24 5 1
25 5 1
26 5 1
27 5 1
28 5 1
29 5 1
30 5 1
31 5 1
32 5 1
33 5 1
34 5 1
35 5 1
36 5 1
37 5 1
38 5 1
39 5 1
40 5 1
41 5 1
42 5 1
43 5 1
44 5 1
45 5 1
46 5 1
47 5 1
48 5 1
49 5 1
0 6 1
1 6 1
2 6 1
3 6 1
4 6 1
5 6 1
6 6 1
7 6 1
8 6 1
9 6 1
10 6 1
11 6 1
12 6 1
13 6 1
14 6 1
15 6 1
16 6 1
17 6 1
18 6 1
19 6 1
20 6 1
21 6 1
22 6 1
23 6 1
24 6 1
25 6 1
26 6 1
27 6 1
28 6 1
29 6 1
30 6 1
31 6 1
32 6 1
33 6 1
34 6 1
35 6 1
36 6 1
37 6 1
38 6 1
39 6 1
40 6 1
41 6 1
42 6 1
43 6 1
44 6 1
45 6 1
46 6 1
47 6 1
48 6 1
49 6 1
0 7 1
1 7 1
2 7 1
3 7 1
4 7 1
5 7 1
6 7 1
7 7 1
8 7 1
9 7 1
10 7 1
11 7 1
12 7 1
13 7 1
14 7 1
15 7 1
16 7 1
17 7 1
18 7 1
19 7 1
20 7 1
21 7 1
22 7 1
23 7 1
24 7 1
25 7 1
26 7 1
27 7 1
28 7 1
29 7 1
30 7 1
31 7 1
32 7 1
33 7 1
34 7 1
35 7 1
36 7 1
37 7 1
38 7 1
39 7 1
40 7 1
41 7 1
42 7 1
43 7 1
44 7 1
45 7 1
46 7 1
47 7 1
48 7 1
49 7 1
0 8 1
1 8 1
2 8 1
3 8 1
4 8 1
5 8 1
6 8 1
7 8 1
8 8 1
9 8 1
10 8 1
11 8 1
12 8 1
13 8 1
14 8 1
15 8 1
16 8 1
17 8 1
18 8 1
19 8 1
20 8 1
21 8 1
22 8 1
23 8 1
24 8 1
25 8 1
26 8 1
27 8 1
28 8 1
29 8 1
30 8 1
31 8 1
32 8 1
33 8 1
34 8 1
35 8 1
36 8 1
37 8 1
38 8 1
39 8 1
40 8 1
41 8 1
42 8 1
43 8 1
44 8 1
45 8 1
46 8 1
47 8 1
48 8 1
49 8 1
0 9 1
1 9 1
2 9 1
3 9 1
4 9 1
5 9 1
6 9 1
7 9 1
8 9 1
9 9 1
10 9 1
11 9 1
12 9 1
13 9 1
14 9 1
15 9 1
16 9 1
17 9 1
18 9 1
19 9 1
20 9 1
21 9 1
22 9 1
23 9 1
24 9 1
25 9 1
26 9 1
27 9 1
28 9 1
29 9 1
30 9 1
31 9 1
32 9 1
33 9 1
34 9 1
35 9 1
36 9 1
37 9 1
38 9 1
39 9 1
40 9 1
41 9 1
42 9 1
43 9 1
44 9 1
45 9 1
46 9 1
47 9 1
48 9 1
49 9 1
0 0 2
1 0 2
2 0 2
3 0 2
4 0 2
5 0 2
6 0 2
7 0 2
8 0 2
9 0 2
10 0 2
11 0 2
12 0 2
13 0 2
14 0 2
15 0 2
16 0 2
17 0 2
18 0 2
19 0 2
20 0 2
21 0 2
22 0 2
23 0 2
24 0 2
25 0 2
26 0 2
27 0 2
28 0 2
29 0 2
30 0 2
31 0 2
32 0 2
33 0 2
34 0 2
35 0 2
36 0 2
37 0 2
38 0 2
39 0 2
40 0 2
41 0 2
42 0 2
43 0 2
44 0 2
45 0 2
46 0 2
47 0 2
48 0 2
49 0 2
0 1 2
1 1 2
2 1 2
3 1 2
4 1 2
5 1 2
6 1 2
7 1 2
8 1 2
9 1 2
10 1 2
11 1 2
12 1 2
13 1 2
14 1 2
15 1 2
16 1 2
17 1 2
18 1 2
19 1 2
20 1 2
21 1 2
22 1 2
23 1 2
24 1 2
25 1 2
26 1 2
27 1 2
28 1 2
29 1 2
30 1 2
31 1 2
32 1 2
33 1 2
34 1 2
35 1 2
36 1 2
37 1 2
38 1 2
39 1 2
40 1 2
41 1 2
42 1 2
43 1 2
44 1 2
45 1 2
46 1 2
47 1 2
48 1 2
49 1 2
0 2 2
1 2 2
2 2 2
3 2 2
4 2 2
5 2 2
6 2 2
7 2 2
8 2 2
9 2 2
10 2 2
11 2 2
12 2 2
13 2 2
14 2 2
15 2 2
16 2 2
17 2 2
18 2 2
19 2 2
20 2 2
21 2 2
22 2 2
23 2 2
24 2 2
25 2 2
26 2 2
27 2 2
28 2 2
29 2 2
30 2 2
31 2 2
32 2 2
33 2 2
34 2 2
35 2 2
36 2 2
37 2 2
38 2 2
39 2 2
40 2 2
41 2 2
42 2 2
43 2 2
44 2 2
45 2 2
46 2 2
47 2 2
48 2 2
49 2 2
0 3 2
1 3 2
2 3 2
3 3 2
4 3 2
5 3 2
6 3 2
7 3 2
8 3 2
9 3 2
10 3 2
11 3 2
12 3 2
13 3 2
14 3 2
15 3 2
16 3 2
17 3 2
18 3 2
19 3 2
20 3 2
21 3 2
22 3 2
23 3 2
24 3 2
25 3 2
26 3 2
27 3 2
28 3 2
29 3 2
30 3 2
31 3 2
32 3 2
33 3 2
34 3 2
35 3 2
36 3 2
37 3 2
38 3 2
39 3 2
40 3 2
41 3 2
42 3 2
43 3 2
44 3 2
45 3 2
46 3 2
47 3 2
48 3 2
49 3 2
0 4 2
1 4 2
2 4 2
3 4 2
4 4 2
5 4 2
6 4 2
7 4 2
8 4 2
9 4 2
10 4 2
11 4 2
12 4 2
13 4 2
14 4 2
15 4 2
16 4 2
17 4 2
18 4 2
19 4 2
20 4 2
21 4 2
22 4 2
23 4 2
24 4 2
25 4 2
26 4 2
27 4 2
28 4 2
29 4 2
30 4 2
31 4 2
32 4 2
33 4 2
34 4 2
35 4 2
36 4 2
37 4 2
38 4 2
39 4 2
40 4 2
41 4 2
42 4 2
43 4 2
44 4 2
45 4 2
46 4 2
47 4 2
48 4 2
49 4 2
0 5 2
1 5 2
2 5 2
3 5 2
4 5 2
5 5 2
6 5 2
7 5 2
8 5 2
9 5 2
10 5 2
11 5 2
12 5 2
13 5 2
14 5 2
15 5 2
16 5 2
17 5 2
18 5 2
19 5 2
20 5 2
21 5 2
22 5 2
23 5 2
24 5 2
25 5 2
26 5 2
27 5 2
28 5 2
29 5 2
30 5 2
31 5 2
32 5 2
33 5 2
34 5 2
35 5 2
36 5 2
37 5 2
38 5 2
39 5 2
40 5 2
41 5 2
42 5 2
43 5 2
44 5 2
45 5 2
46 5 2
47 5 2
48 5 2
49 5 2
0 6 2
1 6 2
2 6 2
3 6 2
4 6 2
5 6 2
6 6 2
7 6 2
8 6 2
9 6 2
10 6 2
11 6 2
12 6 2
13 6 2
14 6 2
15 6 2
16 6 2
17 6 2
18 6 2
19 6 2
20 6 2
21 6 2
22 6 2
23 6 2
24 6 2
25 6 2
26 6 2
27 6 2
28 6 2
29 6 2
30 6 2
31 6 2
32 6 2
33 6 2
34 6 2
35 6 2
36 6 2
37 6 2
38 6 2
39 6 2
40 6 2
41 6 2
42 6 2
43 6 2
44 6 2
45 6 2
46 6 2
47 6 2
48 6 2
49 6 2
0 7 2
1 7 2
2 7 2
3 7 2
4 7 2
5 7 2
6 7 2
7 7 2
8 7 2
9 7 2
10 7 2
11 7 2
12 7 2
13 7 2
14 7 2
15 7 2
16 7 2
17 7 2
18 7 2
19 7 2
20 7 2
21 7 2
22 7 2
23 7 2
24 7 2
25 7 2
26 7 2
27 7 2
28 7 2
29 7 2
30 7 2
31 7 2
32 7 2
33 7 2
34 7 2
35 7 2
36 7 2
37 7 2
38 7 2
39 7 2
40 7 2
41 7 2
42 7 2
43 7 2
44 7 2
45 7 2
46 7 2
47 7 2
48 7 2
49 7 2
0 8 2
1 8 2
2 8 2
3 8 2
4 8 2
5 8 2
6 8 2
7 8 2
8 8 2
9 8 2
10 8 2
11 8 2
12 8 2
13 8 2
14 8 2
15 8 2
16 8 2
17 8 2
18 8 2
19 8 2
20 8 2
21 8 2
22 8 2
23 8 2
24 8 2
25 8 2
26 8 2
27 8 2
28 8 2
29 8 2
30 8 2
31 8 2
32 8 2
33 8 2
34 8 2
35 8 2
36 8 2
37 8 2
38 8 2
39 8 2
40 8 2
41 8 2
42 8 2
43 8 2
44 8 2
45 8 2
46 8 2
47 8 2
48 8 2
49 8 2
0 9 2
1 9 2
2 9 2
3 9 2
4 9 2
[...]
POINT_DATA 15000
SCALARS sol49 float
LOOKUP_TABLE default
48.1386
48.1356
48.1325
48.1295
48.1264
48.1234
48.1203
48.1173
48.1143
48.1112
48.1082
48.1051
48.1021
48.099
48.096
48.0929
48.0899
48.0869
48.0838
48.0808
48.0777
48.0747
48.0717
48.0686
48.0656
48.0625
48.0595
48.0565
48.0534
48.0504
48.0473
48.0443
48.0413
48.0382
48.0352
48.0322
48.0291
48.0261
48.0231
48.02
48.017
48.014
48.0109
48.0079
48.0049
48.0018
47.9988
47.9958
47.9927
47.9897
47.9867
47.9837
47.9806
47.9776
47.9746
47.9715
47.9685
47.9655
47.9625
47.9594
47.9564
47.9534
47.9504
47.9473
47.9443
47.9413
47.9383
47.9353
47.9322
47.9292
47.9262
47.9232
47.9202
47.9171
47.9141
47.9111
47.9081
47.9051
47.902
47.899
47.896
47.893
47.89
47.887
47.8839
47.8809
47.8779
47.8749
47.8719
47.8689
47.8659
47.8628
47.8598
47.8568
47.8538
47.8508
47.8478
47.8448
47.8418
47.8388
47.8358
47.8327
47.8297
47.8267
47.8237
47.8207
47.8177
47.8147
47.8117
47.8087
47.8057
47.8027
47.7997
47.7967
47.7937
47.7907
47.7877
47.7847
47.7817
47.7787
47.7757
47.7727
47.7697
47.7667
47.7637
47.7607
47.7577
47.7547
47.7517
47.7487
47.7457
47.7427
47.7397
47.7367
47.7337
47.7307
47.7277
47.7247
47.7217
47.7187
47.7157
47.7127
47.7097
47.7068
47.7038
47.7008
47.6978
47.6948
47.6918
47.6888
47.6858
47.6828
47.6798
47.6769
47.6739
47.6709
47.6679
47.6649
47.6619
47.6589
47.656
47.653
47.65
47.647
47.644
47.641
47.6381
47.6351
47.6321
47.6291
47.6261
47.6232
47.6202
47.6172
47.6142
47.6112
47.6083
47.6053
47.6023
47.5993
47.5963
47.5934
47.5904
47.5874
47.5844
47.5815
47.5785
47.5755
47.5725
47.5696
47.5666
47.5636
47.5607
47.5577
47.5547
47.5517
47.5488
47.5458
47.5428
47.5399
47.5369
47.5339
47.531
47.528
47.525
47.5221
47.5191
47.5161
47.5132
47.5102
47.5072
47.5043
47.5013
47.4983
47.4954
47.4924
47.4894
47.4865
47.4835
47.4806
47.4776
47.4746
47.4717
47.4687
47.4658
47.4628
47.4598
47.4569
47.4539
47.451
47.448
47.4451
47.4421
47.4392
47.4362
47.4332
47.4303
47.4273
47.4244
47.4214
47.4185
47.4155
47.4126
47.4096
47.4067
47.4037
47.4008
47.3978
47.3949
47.3919
47.389
47.386
47.3831
47.3801
47.3772
47.3742
47.3713
47.3683
47.3654
47.3624
47.3595
47.3566
47.3536
47.3507
47.3477
47.3448
47.3418
47.3389
47.336
47.333
47.3301
47.3271
47.3242
47.3213
47.3183
47.3154
47.3124
47.3095
47.3066
47.3036
47.3007
47.2977
47.2948
47.2919
47.2889
47.286
47.2831
47.2801
47.2772
47.2743
47.2713
47.2684
47.2655
47.2625
47.2596
47.2567
47.2537
47.2508
47.2479
47.245
47.242
47.2391
47.2362
47.2332
47.2303
47.2274
47.2245
47.2215
47.2186
47.2157
47.2128
47.2098
47.2069
47.204
47.2011
47.1981
47.1952
47.1923
47.1894
47.1865
47.1835
47.1806
47.1777
47.1748
47.1718
47.1689
47.166
47.1631
47.1602
47.1573
47.1543
47.1514
47.1485
47.1456
47.1427
47.1398
47.1368
47.1339
47.131
47.1281
47.1252
47.1223
47.1194
47.1165
47.1135
47.1106
47.1077
47.1048
47.1019
47.099
47.0961
47.0932
47.0903
47.0874
47.0844
47.0815
47.0786
47.0757
47.0728
47.0699
47.067
47.0641
47.0612
47.0583
47.0554
47.0525
47.0496
47.0467
47.0438
47.0409
47.038
47.0351
47.0322
47.0293
47.0264
47.0235
47.0206
47.0177
47.0148
47.0119
47.009
47.0061
47.0032
47.0003
46.9974
46.9945
46.9916
46.9887
46.9858
46.9829
46.98
46.9771
46.9742
46.9714
46.9685
46.9656
46.9627
46.9598
46.9569
46.954
46.9511
46.9482
46.9453
46.9424
46.9396
46.9367
46.9338
46.9309
46.928
46.9251
46.9222
46.9194
46.9165
46.9136
46.9107
46.9078
46.9049
46.9021
46.8992
46.8963
46.8934
46.8905
46.8876
46.8848
46.8819
46.879
46.8761
46.8732
46.8704
46.8675
46.8646
46.8617
46.8589
46.856
46.8531
46.8502
46.8474
46.8445
46.8416
46.8387
46.8359
46.833
46.8301
46.8272
46.8244
46.8215
46.8186
46.8157
46.8129
46.81
46.8071
46.8043
46.8014
46.7985
46.7957
46.7928
46.7899
46.7871
46.7842
46.7813
46.7785
46.7756
46.7727
46.7699
46.767
46.7641
46.7613
46.7584
46.7555
46.7527
46.7498
46.747
46.7441
46.7412
46.7384
46.7355
46.7327
46.7298
46.7269
46.7241
46.7212
46.7184
46.7155
46.7126
46.7098
46.7069
46.7041
46.7012
46.6984
46.6955
46.6927
46.6898
46.6869
46.6841
46.6812
46.6784
46.6755
46.6727
46.6698
46.667
46.6641
46.6613
46.6584
46.6556
46.6527
46.6499
46.647
46.6442
46.6413
46.6385
46.6356
46.6328
46.63
46.6271
46.6243
46.6214
46.6186
46.6157
46.6129
46.61
46.6072
46.6044
46.6015
46.5987
46.5958
46.593
46.5902
46.5873
46.5845
46.5816
46.5788
46.576
46.5731
46.5703
46.5674
46.5646
46.5618
46.5589
46.5561
46.5533
46.5504
46.5476
46.5448
46.5419
46.5391
46.5363
46.5334
46.5306
46.5278
46.5249
46.5221
46.5193
46.5164
46.5136
46.5108
46.508
46.5051
46.5023
46.4995
46.4966
46.4938
46.491
46.4882
46.4853
46.4825
46.4797
46.4769
46.474
46.4712
46.4684
46.4656
46.4627
46.4599
46.4571
46.4543
46.4515
46.4486
46.4458
46.443
46.4402
46.4374
46.4345
46.4317
46.4289
46.4261
46.4233
46.4204
46.4176
46.4148
46.412
46.4092
46.4064
46.4035
46.4007
46.3979
46.3951
46.3923
46.3895
46.3867
46.3839
46.381
46.3782
46.3754
46.3726
46.3698
46.367
46.3642
46.3614
46.3586
46.3558
46.3529
46.3501
46.3473
46.3445
46.3417
46.3389
46.3361
46.3333
46.3305
46.3277
46.3249
46.3221
46.3193
46.3165
46.3137
46.3109
46.3081
46.3053
46.3025
46.2997
46.2969
46.2941
46.2913
46.2885
46.2857
46.2829
46.2801
46.2773
46.2745
46.2717
46.2689
46.2661
46.2633
46.2605
46.2577
46.2549
46.2521
46.2493
46.2465
46.2437
46.241
46.2382
46.2354
46.2326
46.2298
46.227
46.2242
46.2214
46.2186
46.2158
46.2131
46.2103
46.2075
46.2047
46.2019
46.1991
46.1963
46.1935
46.1908
46.188
46.1852
46.1824
46.1796
46.1768
46.1741
46.1713
46.1685
46.1657
46.1629
46.1601
46.1574
46.1546
46.1518
46.149
46.1462
46.1435
46.1407
46.1379
46.1351
46.1324
46.1296
46.1268
46.124
46.1212
46.1185
46.1157
46.1129
46.1101
46.1074
46.1046
46.1018
46.0991
46.0963
46.0935
46.0907
46.088
46.0852
46.0824
46.0797
46.0769
46.0741
46.0713
46.0686
46.0658
46.063
46.0603
46.0575
46.0547
46.052
46.0492
46.0464
46.0437
46.0409
46.0381
46.0354
46.0326
46.0299
46.0271
46.0243
46.0216
46.0188
46.016
46.0133
46.0105
46.0078
46.005
46.0022
45.9995
45.9967
45.994
45.9912
45.9885
45.9857
45.9829
45.9802
45.9774
45.9747
45.9719
45.9692
45.9664
45.9637
45.9609
45.9581
45.9554
45.9526
45.9499
45.9471
45.9444
45.9416
45.9389
45.9361
45.9334
45.9306
45.9279
45.9251
45.9224
45.9196
45.9169
45.9141
45.9114
45.9087
45.9059
45.9032
45.9004
45.8977
45.8949
45.8922
45.8894
45.8867
45.884
45.8812
45.8785
45.8757
45.873
45.8702
45.8675
45.8648
45.862
45.8593
45.8565
45.8538
45.8511
45.8483
45.8456
45.8429
45.8401
45.8374
45.8346
45.8319
45.8292
45.8264
45.8237
45.821
45.8182
45.8155
45.8128
45.81
45.8073
45.8046
45.8018
45.7991
45.7964
45.7937
45.7909
45.7882
45.7855
45.7827
45.78
45.7773
45.7746
45.7718
45.7691
45.7664
45.7636
45.7609
45.7582
45.7555
45.7527
45.75
45.7473
45.7446
45.7418
45.7391
45.7364
45.7337
45.731
45.7282
45.7255
45.7228
45.7201
45.7174
45.7146
45.7119
45.7092
45.7065
45.7038
45.701
45.6983
45.6956
45.6929
45.6902
45.6875
45.6847
45.682
45.6793
45.6766
45.6739
45.6712
45.6685
45.6658
45.663
45.6603
45.6576
45.6549
45.6522
45.6495
45.6468
45.6441
45.6414
45.6387
45.6359
45.6332
45.6305
45.6278
45.6251
45.6224
45.6197
45.617
45.6143
45.6116
45.6089
45.6062
45.6035
45.6008
45.5981
45.5954
45.5927
45.59
45.5873
45.5846
45.5819
45.5792
45.5765
45.5738
45.5711
45.5684
45.5657
45.563
45.5603
45.5576
45.5549
45.5522
45.5495
45.5468
45.5441
45.5414
45.5387
45.536
45.5333
45.5306
45.5279
45.5252
45.5225
45.5198
45.5171
45.5145
45.5118
45.5091
45.5064
45.5037
45.501
45.4983
45.4956
45.4929
45.4903
45.4876
45.4849
45.4822
45.4795
45.4768
45.4741
45.4714
45.4688
45.4661
45.4634
45.4607
45.458
45.4553
45.4527
45.45
45.4473
45.4446
45.4419
45.4393
45.4366
45.4339
45.4312
45.4285
45.4259
45.4232
45.4205
45.4178
45.4151
45.4125
45.4098
45.4071
45.4044
45.4018
45.3991
45.3964
45.3937
45.3911
45.3884
45.3857
45.383
45.3804
45.3777
45.375
45.3724
45.3697
45.367
45.3643
45.3617
45.359
45.3563
45.3537
45.351
45.3483
45.3457
45.343
45.3403
45.3377
45.335
45.3323
45.3297
45.327
45.3243
45.3217
45.319
45.3163
45.3137
45.311
45.3084
45.3057
45.303
45.3004
45.2977
45.2951
45.2924
45.2897
45.2871
45.2844
45.2818
45.2791
45.2764
45.2738
45.2711
45.2685
45.2658
45.2632
45.2605
45.2578
45.2552
45.2525
45.2499
45.2472
45.2446
45.2419
45.2393
45.2366
45.234
45.2313
45.2287
45.226
45.2234
45.2207
45.2181
45.2154
45.2128
45.2101
45.2075
45.2048
45.2022
45.1995
45.1969
45.1942
45.1916
45.1889
45.1863
45.1837
45.181
45.1784
45.1757
45.1731
45.1704
45.1678
45.1651
45.1625
45.1599
45.1572
45.1546
45.1519
45.1493
45.1467
45.144
45.1414
45.1387
45.1361
45.1335
45.1308
45.1282
45.1256
45.1229
45.1203
45.1177
45.115
45.1124
45.1098
45.1071
45.1045
45.1019
45.0992
45.0966
45.094
45.0913
45.0887
45.0861
45.0834
45.0808
45.0782
45.0755
45.0729
45.0703
45.0677
45.065
45.0624
45.0598
45.0571
45.0545
45.0519
45.0493
45.0466
45.044
45.0414
45.0388
45.0361
45.0335
45.0309
45.0283
45.0257
45.023
45.0204
45.0178
45.0152
45.0125
45.0099
45.0073
45.0047
45.0021
44.9994
44.9968
44.9942
44.9916
44.989
44.9864
44.9837
44.9811
44.9785
44.9759
44.9733
44.9707
44.9681
44.9654
44.9628
44.9602
44.9576
44.955
44.9524
44.9498
44.9472
44.9445
44.9419
44.9393
44.9367
44.9341
44.9315
44.9289
44.9263
44.9237
44.9211
44.9185
44.9159
44.9132
44.9106
44.908
44.9054
44.9028
44.9002
44.8976
44.895
44.8924
44.8898
44.8872
44.8846
44.882
44.8794
44.8768
44.8742
44.8716
44.869
44.8664
44.8638
44.8612
44.8586
44.856
44.8534
44.8508
44.8482
44.8456
44.843
44.8404
44.8378
44.8352
44.8326
44.83
44.8274
44.8249
44.8223
44.8197
44.8171
44.8145
44.8119
44.8093
44.8067
44.8041
44.8015
44.7989
44.7963
44.7938
44.7912
44.7886
44.786
44.7834
44.7808
44.7782
44.7756
44.7731
44.7705
44.7679
44.7653
44.7627
44.7601
44.7575
44.755
44.7524
44.7498
44.7472
44.7446
44.742
44.7395
44.7369
44.7343
44.7317
44.7291
44.7266
44.724
44.7214
44.7188
44.7162
44.7137
44.7111
44.7085
44.7059
44.7034
44.7008
44.6982
44.6956
44.6931
44.6905
44.6879
44.6853
44.6828
44.6802
44.6776
44.675
44.6725
44.6699
44.6673
44.6648
44.6622
44.6596
44.6571
44.6545
44.6519
44.6493
44.6468
44.6442
44.6416
44.6391
44.6365
44.6339
44.6314
44.6288
44.6262
44.6237
44.6211
44.6185
44.616
44.6134
44.6109
44.6083
44.6057
44.6032
44.6006
44.598
44.5955
44.5929
44.5904
44.5878
44.5852
44.5827
44.5801
44.5776
44.575
44.5725
44.5699
44.5673
44.5648
44.5622
44.5597
44.5571
44.5546
44.552
44.5495
44.5469
44.5443
44.5418
44.5392
44.5367
44.5341
44.5316
44.529
44.5265
44.5239
44.5214
44.5188
44.5163
44.5137
44.5112
44.5086
44.5061
44.5035
44.501
44.4984
44.4959
44.4934
44.4908
44.4883
44.4857
44.4832
44.4806
44.4781
44.4755
44.473
44.4705
44.4679
44.4654
44.4628
44.4603
44.4577
44.4552
44.4527
44.4501
44.4476
44.445
44.4425
44.44
44.4374
44.4349
44.4324
44.4298
44.4273
44.4247
44.4222
44.4197
44.4171
44.4146
44.4121
44.4095
44.407
44.4045
44.4019
44.3994
44.3969
44.3943
44.3918
44.3893
44.3867
44.3842
44.3817
44.3792
44.3766
44.3741
44.3716
44.369
44.3665
44.364
44.3615
44.3589
44.3564
44.3539
44.3514
44.3488
44.3463
44.3438
44.3413
44.3387
44.3362
44.3337
44.3312
44.3286
44.3261
44.3236
44.3211
44.3186
44.316
44.3135
44.311
44.3085
44.306
44.3034
44.3009
44.2984
44.2959
44.2934
44.2908
44.2883
44.2858
44.2833
44.2808
44.2783
44.2758
44.2732
44.2707
44.2682
44.2657
44.2632
44.2607
44.2582
44.2556
44.2531
44.2506
44.2481
44.2456
44.2431
44.2406
44.2381
44.2356
44.2331
44.2305
44.228
44.2255
44.223
44.2205
44.218
44.2155
44.213
44.2105
44.208
44.2055
44.203
44.2005
44.198
44.1955
44.193
44.1905
44.188
44.1855
44.183
44.1805
44.178
44.1755
44.173
44.1705
44.168
44.1655
44.163
44.1605
44.158
44.1555
44.153
44.1505
44.148
44.1455
44.143
44.1405
44.138
44.1355
44.133
44.1305
44.128
44.1255
44.123
44.1205
44.1181
44.1156
44.1131
44.1106
44.1081
44.1056
44.1031
44.1006
44.0981
44.0956
44.0932
44.0907
44.0882
44.0857
44.0832
44.0807
44.0782
44.0758
44.0733
44.0708
44.0683
44.0658
44.0633
44.0608
44.0584
44.0559
44.0534
44.0509
44.0484
44.046
44.0435
44.041
44.0385
44.036
44.0336
44.0311
44.0286
44.0261
44.0236
44.0212
44.0187
44.0162
44.0137
44.0113
44.0088
44.0063
44.0038
44.0014
43.9989
43.9964
43.9939
43.9915
43.989
43.9865
43.984
43.9816
43.9791
43.9766
43.9742
43.9717
43.9692
43.9667
43.9643
43.9618
43.9593
43.9569
43.9544
43.9519
43.9495
43.947
43.9445
43.9421
43.9396
43.9371
43.9347
43.9322
43.9297
43.9273
43.9248
43.9223
43.9199
43.9174
43.915
43.9125
43.91
43.9076
43.9051
43.9027
43.9002
43.8977
43.8953
43.8928
43.8904
43.8879
43.8854
43.883
43.8805
43.8781
43.8756
43.8732
43.8707
43.8682
43.8658
43.8633
43.8609
43.8584
43.856
43.8535
43.8511
43.8486
43.8462
43.8437
43.8413
43.8388
43.8364
43.8339
43.8315
43.829
43.8266
43.8241
43.8217
43.8192
43.8168
43.8143
43.8119
43.8094
43.807
43.8045
43.8021
43.7996
43.7972
43.7948
43.7923
43.7899
43.7874
43.785
43.7825
43.7801
43.7777
43.7752
43.7728
43.7703
43.7679
43.7654
43.763
43.7606
43.7581
43.7557
43.7533
43.7508
43.7484
43.7459
43.7435
43.7411
43.7386
43.7362
43.7338
43.7313
43.7289
43.7265
43.724
43.7216
43.7192
43.7167
43.7143
43.7119
43.7094
43.707
43.7046
43.7021
43.6997
43.6973
43.6948
43.6924
43.69
43.6876
43.6851
43.6827
43.6803
43.6778
43.6754
43.673
43.6706
43.6681
43.6657
43.6633
43.6609
43.6584
43.656
43.6536
43.6512
43.6487
43.6463
43.6439
43.6415
43.6391
43.6366
43.6342
43.6318
43.6294
43.627
43.6245
43.6221
43.6197
43.6173
43.6149
43.6124
43.61
43.6076
43.6052
43.6028
43.6004
43.5979
43.5955
43.5931
43.5907
43.5883
43.5859
43.5835
43.581
43.5786
43.5762
43.5738
43.5714
43.569
43.5666
43.5642
43.5618
43.5593
43.5569
43.5545
43.5521
43.5497
43.5473
43.5449
43.5425
43.5401
43.5377
43.5353
43.5329
43.5305
43.528
43.5256
43.5232
43.5208
43.5184
43.516
43.5136
43.5112
43.5088
43.5064
43.504
43.5016
43.4992
43.4968
43.4944
43.492
43.4896
43.4872
43.4848
43.4824
43.48
43.4776
43.4752
43.4728
43.4704
43.468
43.4656
43.4632
43.4608
43.4585
43.4561
43.4537
43.4513
43.4489
43.4465
43.4441
43.4417
43.4393
43.4369
43.4345
43.4321
43.4297
43.4274
43.425
43.4226
43.4202
43.4178
43.4154
43.413
43.4106
43.4082
43.4059
43.4035
43.4011
43.3987
43.3963
43.3939
43.3915
43.3892
43.3868
43.3844
43.382
43.3796
43.3772
43.3749
43.3725
43.3701
43.3677
43.3653
43.363
43.3606
43.3582
43.3558
43.3534
43.3511
43.3487
43.3463
43.3439
43.3415
43.3392
43.3368
43.3344
43.332
43.3297
43.3273
43.3249
43.3225
43.3202
43.3178
43.3154
43.313
43.3107
43.3083
43.3059
43.3036
43.3012
43.2988
43.2964
43.2941
43.2917
43.2893
43.287
43.2846
43.2822
43.2799
43.2775
43.2751
43.2728
43.2704
43.268
43.2657
43.2633
43.2609
43.2586
43.2562
43.2538
43.2515
43.2491
43.2467
43.2444
43.242
43.2397
43.2373
43.2349
43.2326
43.2302
43.2278
43.2255
43.2231
43.2208
43.2184
43.2161
43.2137
43.2113
43.209
43.2066
43.2043
43.2019
43.1995
43.1972
43.1948
43.1925
43.1901
43.1878
43.1854
43.1831
43.1807
43.1784
43.176
43.1737
43.1713
43.169
43.1666
43.1642
43.1619
43.1595
43.1572
43.1548
43.1525
43.1502
43.1478
43.1455
43.1431
43.1408
43.1384
43.1361
43.1337
43.1314
43.129
43.1267
43.1243
43.122
43.1197
43.1173
43.115
43.1126
43.1103
43.1079
43.1056
43.1033
43.1009
43.0986
43.0962
43.0939
43.0915
43.0892
43.0869
43.0845
43.0822
43.0799
43.0775
43.0752
43.0728
43.0705
43.0682
43.0658
43.0635
43.0612
43.0588
43.0565
43.0542
43.0518
43.0495
43.0472
43.0448
43.0425
43.0402
43.0378
43.0355
43.0332
43.0308
43.0285
43.0262
43.0238
43.0215
43.0192
43.0169
43.0145
43.0122
43.0099
43.0075
43.0052
43.0029
43.0006
42.9982
42.9959
42.9936
42.9913
42.9889
42.9866
42.9843
42.982
42.9796
42.9773
42.975
42.9727
42.9704
42.968
42.9657
42.9634
42.9611
42.9588
42.9564
42.9541
42.9518
42.9495
42.9472
42.9448
42.9425
42.9402
42.9379
42.9356
42.9333
42.9309
42.9286
42.9263
42.924
42.9217
42.9194
42.9171
42.9147
42.9124
42.9101
42.9078
42.9055
42.9032
42.9009
42.8986
42.8962
42.8939
42.8916
42.8893
42.887
42.8847
42.8824
42.8801
42.8778
42.8755
42.8732
42.8709
42.8685
42.8662
42.8639
42.8616
42.8593
42.857
42.8547
42.8524
42.8501
42.8478
42.8455
42.8432
42.8409
42.8386
42.8363
42.834
42.8317
42.8294
42.8271
42.8248
42.8225
42.8202
42.8179
42.8156
42.8133
42.811
42.8087
42.8064
42.8041
42.8018
42.7995
42.7972
42.7949
42.7926
42.7903
42.7881
42.7858
42.7835
42.7812
42.7789
42.7766
42.7743
42.772
42.7697
42.7674
42.7651
42.7628
42.7605
42.7583
42.756
42.7537
42.7514
42.7491
42.7468
42.7445
42.7422
42.74
42.7377
42.7354
42.7331
42.7308
42.7285
42.7262
42.724
42.7217
42.7194
42.7171
42.7148
42.7125
42.7103
42.708
42.7057
42.7034
42.7011
42.6989
42.6966
42.6943
42.692
42.6897
42.6875
42.6852
42.6829
42.6806
42.6783
42.6761
42.6738
42.6715
42.6692
42.667
42.6647
42.6624
42.6601
42.6579
42.6556
42.6533
42.651
42.6488
42.6465
42.6442
42.642
42.6397
42.6374
42.6351
42.6329
42.6306
42.6283
42.6261
42.6238
42.6215
42.6193
42.617
42.6147
42.6125
42.6102
42.6079
42.6057
42.6034
42.6011
42.5989
42.5966
42.5943
42.5921
42.5898
42.5875
42.5853
42.583
42.5808
42.5785
42.5762
42.574
42.5717
42.5694
42.5672
42.5649
42.5627
42.5604
42.5581
42.5559
42.5536
42.5514
42.5491
42.5469
42.5446
42.5423
42.5401
42.5378
42.5356
42.5333
42.5311
42.5288
42.5266
42.5243
42.5221
42.5198
42.5175
42.5153
42.513
42.5108
42.5085
42.5063
42.504
42.5018
42.4995
42.4973
42.495
42.4928
42.4905
42.4883
42.486
42.4838
42.4815
42.4793
42.4771
42.4748
42.4726
42.4703
42.4681
42.4658
42.4636
42.4613
42.4591
42.4569
42.4546
42.4524
42.4501
42.4479
42.4456
42.4434
42.4412
42.4389
42.4367
42.4344
42.4322
42.43
42.4277
42.4255
42.4232
42.421
42.4188
42.4165
42.4143
42.4121
42.4098
42.4076
42.4054
42.4031
42.4009
42.3986
42.3964
42.3942
42.3919
42.3897
42.3875
42.3852
42.383
42.3808
42.3786
42.3763
42.3741
42.3719
42.3696
42.3674
42.3652
42.3629
42.3607
42.3585
42.3563
42.354
42.3518
42.3496
42.3474
42.3451
42.3429
42.3407
42.3384
42.3362
42.334
42.3318
42.3296
42.3273
42.3251
42.3229
42.3207
42.3184
42.3162
42.314
42.3118
42.3096
42.3073
42.3051
42.3029
42.3007
42.2985
42.2962
42.294
42.2918
42.2896
42.2874
42.2852
42.2829
42.2807
42.2785
42.2763
42.2741
42.2719
42.2696
42.2674
42.2652
42.263
42.2608
42.2586
42.2564
42.2542
42.2519
42.2497
42.2475
42.2453
42.2431
42.2409
42.2387
42.2365
42.2343
42.2321
42.2298
42.2276
42.2254
42.2232
42.221
42.2188
42.2166
42.2144
42.2122
42.21
42.2078
42.2056
42.2034
42.2012
42.199
42.1968
42.1946
42.1924
42.1902
42.188
42.1857
42.1835
42.1813
42.1791
42.1769
42.1747
42.1725
42.1703
42.1681
42.166
42.1638
42.1616
42.1594
42.1572
42.155
42.1528
42.1506
42.1484
42.1462
42.144
42.1418
42.1396
42.1374
42.1352
42.133
42.1308
42.1286
42.1264
42.1242
42.1221
42.1199
42.1177
42.1155
42.1133
42.1111
42.1089
42.1067
42.1045
42.1023
42.1002
42.098
42.0958
42.0936
42.0914
42.0892
42.087
42.0849
42.0827
42.0805
42.0783
42.0761
42.0739
42.0717
42.0696
42.0674
42.0652
42.063
42.0608
42.0587
42.0565
42.0543
42.0521
42.0499
42.0478
42.0456
42.0434
42.0412
42.039
42.0369
42.0347
42.0325
42.0303
42.0281
42.026
42.0238
42.0216
42.0194
42.0173
42.0151
42.0129
42.0107
42.0086
42.0064
42.0042
42.0021
41.9999
41.9977
41.9955
41.9934
41.9912
41.989
41.9869
41.9847
41.9825
41.9803
41.9782
41.976
41.9738
41.9717
41.9695
41.9673
41.9652
41.963
41.9608
41.9587
41.9565
41.9543
41.9522
41.95
41.9478
41.9457
41.9435
41.9414
41.9392
41.937
41.9349
41.9327
41.9305
41.9284
41.9262
41.9241
41.9219
41.9197
41.9176
41.9154
41.9133
41.9111
41.9089
41.9068
41.9046
41.9025
41.9003
41.8982
41.896
41.8939
41.8917
41.8895
41.8874
41.8852
41.8831
41.8809
41.8788
41.8766
41.8745
41.8723
41.8702
41.868
41.8659
41.8637
41.8616
41.8594
41.8573
41.8551
41.853
41.8508
41.8487
41.8465
41.8444
41.8422
41.8401
41.8379
41.8358
41.8336
41.8315
41.8293
41.8272
41.825
41.8229
41.8208
41.8186
41.8165
41.8143
41.8122
41.81
41.8079
41.8058
41.8036
41.8015
41.7993
41.7972
41.7951
41.7929
41.7908
41.7886
41.7865
41.7844
41.7822
41.7801
41.7779
41.7758
41.7737
41.7715
41.7694
41.7673
41.7651
41.763
41.7609
41.7587
41.7566
41.7545
41.7523
41.7502
41.7481
41.7459
41.7438
41.7417
41.7395
41.7374
41.7353
41.7331
41.731
41.7289
41.7267
41.7246
41.7225
41.7204
41.7182
41.7161
41.714
41.7119
41.7097
41.7076
41.7055
41.7033
41.7012
41.6991
41.697
41.6949
41.6927
41.6906
41.6885
41.6864
41.6842
41.6821
41.68
41.6779
41.6757
41.6736
41.6715
41.6694
41.6673
41.6651
41.663
41.6609
41.6588
41.6567
41.6546
41.6524
41.6503
41.6482