# vtk DataFile Version 2.0
vtk output
ASCII
DATASET STRUCTURED_GRID
DIMENSIONS 50 10 30
POINTS 15000 float
0 0 0
1 0 0
2 0 0
3 0 0
4 0 0
5 0 0
6 0 0
7 0 0
8 0 0
9 0 0
10 0 0
11 0 0
12 0 0
13 0 0
14 0 0
15 0 0
16 0 0
17 0 0
18 0 0
19 0 0
20 0 0
21 0 0
22 0 0
23 0 0
24 0 0
25 0 0
26 0 0
27 0 0
28 0 0
29 0 0
30 0 0
31 0 0
32 0 0
33 0 0
34 0 0
35 0 0
36 0 0
37 0 0
38 0 0
39 0 0
40 0 0
41 0 0
42 0 0
43 0 0
44 0 0
45 0 0
46 0 0
47 0 0
48 0 0
49 0 0
0 1 0
1 1 0
2 1 0
3 1 0
4 1 0
5 1 0
6 1 0
7 1 0
8 1 0
9 1 0
10 1 0
11 1 0
12 1 0
13 1 0
14 1 0
15 1 0
16 1 0
17 1 0
18 1 0
19 1 0
20 1 0
21 1 0
22 1 0
23 1 0
24 1 0
25 1 0
26 1 0
27 1 0
28 1 0
29 1 0
30 1 0
31 1 0
32 1 0
33 1 0
34 1 0
35 1 0
36 1 0
37 1 0
38 1 0
39 1 0
40 1 0
41 1 0
42 1 0
43 1 0
44 1 0
45 1 0
46 1 0
47 1 0
48 1 0
49 1 0
0 2 0
1 2 0
2 2 0
3 2 0
4 2 0
5 2 0
6 2 0
7 2 0
8 2 0
9 2 0
10 2 0
11 2 0
12 2 0
13 2 0
14 2 0
15 2 0
16 2 0
17 2 0
18 2 0
19 2 0
20 2 0
21 2 0
22 2 0
23 2 0
24 2 0
25 2 0
26 2 0
27 2 0
28 2 0
29 2 0
30 2 0
31 2 0
32 2 0
33 2 0
34 2 0
35 2 0
36 2 0
37 2 0
38 2 0
39 2 0
40 2 0
41 2 0
42 2 0
43 2 0
44 2 0
45 2 0
46 2 0
47 2 0
48 2 0
49 2 0
0 3 0
1 3 0
2 3 0
3 3 0
4 3 0
5 3 0
6 3 0
7 3 0
8 3 0
9 3 0
10 3 0
11 3 0
12 3 0
13 3 0
14 3 0
15 3 0
16 3 0
17 3 0
18 3 0
19 3 0
20 3 0
21 3 0
22 3 0
23 3 0
24 3 0
25 3 0
26 3 0
27 3 0
28 3 0
29 3 0
30 3 0
31 3 0
32 3 0
33 3 0
34 3 0
35 3 0
36 3 0
37 3 0
38 3 0
39 3 0
40 3 0
41 3 0
42 3 0
43 3 0
44 3 0
45 3 0
46 3 0
47 3 0
48 3 0
49 3 0
0 4 0
1 4 0
2 4 0
3 4 0
4 4 0
5 4 0
6 4 0
7 4 0
8 4 0
9 4 0
10 4 0
11 4 0
12 4 0
13 4 0
14 4 0
15 4 0
16 4 0
17 4 0
18 4 0
19 4 0
20 4 0
21 4 0
22 4 0
23 4 0
24 4 0
25 4 0
26 4 0
27 4 0
28 4 0
29 4 0
30 4 0
31 4 0
32 4 0
33 4 0
34 4 0
35 4 0
36 4 0
37 4 0
38 4 0
39 4 0
40 4 0
41 4 0
42 4 0
43 4 0
44 4 0
45 4 0
46 4 0
47 4 0
48 4 0
49 4 0
0 5 0
1 5 0
2 5 0
3 5 0
4 5 0
5 5 0
6 5 0
7 5 0
8 5 0
9 5 0
10 5 0
11 5 0
12 5 0
13 5 0
14 5 0
15 5 0
16 5 0
17 5 0
18 5 0
19 5 0
20 5 0
21 5 0
22 5 0
23 5 0
24 5 0
25 5 0
26 5 0
27 5 0
28 5 0
29 5 0
30 5 0
31 5 0
32 5 0
33 5 0
34 5 0
35 5 0
36 5 0
37 5 0
38 5 0
39 5 0
40 5 0
41 5 0
42 5 0
43 5 0
44 5 0
45 5 0
46 5 0
47 5 0
48 5 0
49 5 0
0 6 0
1 6 0
2 6 0
3 6 0
4 6 0
5 6 0
6 6 0
7 6 0
8 6 0
9 6 0
10 6 0
11 6 0
12 6 0
13 6 0
14 6 0
15 6 0
16 6 0
17 6 0
18 6 0
19 6 0
20 6 0
21 6 0
22 6 0
23 6 0
24 6 0
25 6 0
26 6 0
27 6 0
28 6 0
29 6 0
30 6 0
31 6 0
32 6 0
33 6 0
34 6 0
35 6 0
36 6 0
37 6 0
38 6 0
39 6 0
40 6 0
41 6 0
42 6 0
43 6 0
44 6 0
45 6 0
46 6 0
47 6 0
48 6 0
49 6 0
0 7 0
1 7 0
2 7 0
3 7 0
4 7 0
5 7 0
6 7 0
7 7 0
8 7 0
9 7 0
10 7 0
11 7 0
12 7 0
13 7 0
14 7 0
15 7 0
16 7 0
17 7 0
18 7 0
19 7 0
20 7 0
21 7 0
22 7 0
23 7 0
24 7 0
25 7 0
26 7 0
27 7 0
28 7 0
29 7 0
30 7 0
31 7 0
32 7 0
33 7 0
34 7 0
35 7 0
36 7 0
37 7 0
38 7 0
39 7 0
40 7 0
41 7 0
42 7 0
43 7 0
44 7 0
45 7 0
46 7 0
47 7 0
48 7 0
49 7 0
0 8 0
1 8 0
2 8 0
3 8 0
4 8 0
5 8 0
6 8 0
7 8 0
8 8 0
9 8 0
10 8 0
11 8 0
12 8 0
13 8 0
14 8 0
15 8 0
16 8 0
17 8 0
18 8 0
19 8 0
20 8 0
21 8 0
22 8 0
23 8 0
24 8 0
25 8 0
26 8 0
27 8 0
28 8 0
29 8 0
30 8 0
31 8 0
32 8 0
33 8 0
34 8 0
35 8 0
36 8 0
37 8 0
38 8 0
39 8 0
40 8 0
41 8 0
42 8 0
43 8 0
44 8 0
45 8 0
46 8 0
47 8 0
48 8 0
49 8 0
0 9 0
1 9 0
2 9 0
3 9 0
4 9 0
5 9 0
6 9 0
7 9 0
8 9 0
9 9 0
10 9 0
11 9 0
12 9 0
13 9 0
14 9 0
15 9 0
16 9 0
17 9 0
18 9 0
19 9 0
20 9 0
21 9 0
22 9 0
23 9 0
24 9 0
25 9 0
26 9 0
27 9 0
28 9 0
29 9 0
30 9 0
31 9 0
32 9 0
33 9 0
34 9 0
35 9 0
36 9 0
37 9 0
38 9 0
39 9 0
40 9 0
41 9 0
42 9 0
43 9 0
44 9 0
45 9 0
46 9 0
47 9 0
48 9 0
49 9 0
0 0 1
1 0 1
2 0 1
3 0 1
4 0 1
5 0 1
6 0 1
7 0 1
8 0 1
9 0 1
10 0 1
11 0 1
12 0 1
13 0 1
14 0 1
15 0 1
16 0 1
17 0 1
18 0 1
19 0 1
20 0 1
21 0 1
22 0 1
23 0 1
24 0 1
25 0 1
26 0 1
27 0 1
28 0 1
29 0 1
30 0 1
31 0 1
32 0 1
33 0 1
34 0 1
35 0 1
36 0 1
37 0 1
38 0 1
39 0 1
40 0 1
41 0 1
42 0 1
43 0 1
44 0 1
45 0 1
46 0 1
47 0 1
48 0 1
49 0 1
0 1 1
1 1 1
2 1 1
3 1 1
4 1 1
5 1 1
6 1 1
7 1 1
8 1 1
9 1 1
10 1 1
11 1 1
12 1 1
13 1 1
14 1 1
15 1 1
16 1 1
17 1 1
18 1 1
19 1 1
20 1 1
21 1 1
22 1 1
23 1 1
24 1 1
25 1 1
26 1 1
27 1 1
28 1 1
29 1 1
30 1 1
31 1 1
32 1 1
33 1 1
34 1 1
35 1 1
36 1 1
37 1 1
38 1 1
39 1 1
40 1 1
41 1 1
42 1 1
43 1 1
44 1 1
45 1 1
46 1 1
47 1 1
48 1 1
49 1 1
0 2 1
1 2 1
2 2 1
3 2 1
4 2 1
5 2 1
6 2 1
7 2 1
8 2 1
9 2 1
10 2 1
11 2 1
12 2 1
13 2 1
14 2 1
15 2 1
16 2 1
17 2 1
18 2 1
19 2 1
20 2 1
21 2 1
22 2 1
23 2 1
24 2 1
25 2 1
26 2 1
27 2 1
28 2 1
29 2 1
30 2 1
31 2 1
32 2 1
33 2 1
34 2 1
35 2 1
36 2 1
37 2 1
38 2 1
39 2 1
40 2 1
41 2 1
42 2 1
43 2 1
44 2 1
45 2 1
46 2 1
47 2 1
48 2 1
49 2 1
0 3 1
1 3 1
2 3 1
3 3 1
4 3 1
5 3 1
6 3 1
7 3 1
8 3 1
9 3 1
10 3 1
11 3 1
12 3 1
13 3 1
14 3 1
15 3 1
16 3 1
17 3 1
18 3 1
19 3 1
20 3 1
21 3 1
22 3 1
23 3 1
24 3 1
25 3 1
26 3 1
27 3 1
28 3 1
29 3 1
30 3 1
31 3 1
32 3 1
33 3 1
34 3 1
35 3 1
36 3 1
37 3 1
38 3 1
39 3 1
40 3 1
41 3 1
42 3 1
43 3 1
44 3 1
45 3 1
46 3 1
47 3 1
48 3 1
49 3 1
0 4 1
1 4 1
2 4 1
3 4 1
4 4 1
5 4 1
6 4 1
7 4 1
8 4 1
9 4 1
10 4 1
11 4 1
12 4 1
13 4 1
14 4 1
15 4 1
16 4 1
17 4 1
18 4 1
19 4 1
20 4 1
21 4 1
22 4 1
23 4 1
24 4 1
25 4 1
26 4 1
27 4 1
28 4 1
29 4 1
30 4 1
31 4 1
32 4 1
33 4 1
34 4 1
35 4 1
36 4 1
37 4 1
38 4 1
39 4 1
40 4 1
41 4 1
42 4 1
43 4 1
44 4 1
45 4 1
46 4 1
47 4 1
48 4 1
49 4 1
0 5 1
1 5 1
2 5 1
3 5 1
4 5 1
5 5 1
6 5 1
7 5 1
8 5 1
9 5 1
10 5 1
11 5 1
12 5 1
13 5 1
14 5 1
15 5 1
16 5 1
17 5 1
18 5 1
19 5 1
20 5 1
21 5 1
22 5 1
23 5 1
24 5 1
25 5 1
26 5 1
27 5 1
28 5 1
29 5 1
30 5 1
31 5 1
32 5 1
33 5 1
34 5 1
35 5 1
36 5 1
37 5 1
38 5 1
39 5 1
40 5 1
41 5 1
42 5 1
43 5 1
44 5 1
45 5 1
46 5 1
47 5 1
48 5 1
49 5 1
0 6 1
1 6 1
2 6 1
3 6 1
4 6 1
5 6 1
6 6 1
7 6 1
8 6 1
9 6 1
10 6 1
11 6 1
12 6 1
13 6 1
14 6 1
15 6 1
16 6 1
17 6 1
18 6 1
19 6 1
20 6 1
21 6 1
22 6 1
23 6 1
24 6 1
25 6 1
26 6 1
27 6 1
28 6 1
29 6 1
30 6 1
31 6 1
32 6 1
33 6 1
34 6 1
35 6 1
36 6 1
37 6 1
38 6 1
39 6 1
40 6 1
41 6 1
42 6 1
43 6 1
44 6 1
45 6 1
46 6 1
47 6 1
48 6 1
49 6 1
0 7 1
1 7 1
2 7 1
3 7 1
4 7 1
5 7 1
6 7 1
7 7 1
8 7 1
9 7 1
10 7 1
11 7 1
12 7 1
13 7 1
14 7 1
15 7 1
16 7 1
17 7 1
18 7 1
19 7 1
20 7 1
21 7 1
22 7 1
23 7 1
24 7 1
25 7 1
26 7 1
27 7 1
28 7 1
29 7 1
30 7 1
31 7 1
32 7 1
33 7 1
34 7 1
35 7 1
36 7 1
37 7 1
38 7 1
39 7 1
40 7 1
41 7 1
42 7 1
43 7 1
44 7 1
45 7 1
46 7 1
47 7 1
48 7 1
49 7 1
0 8 1
1 8 1
2 8 1
3 8 1
4 8 1
5 8 1
6 8 1
7 8 1
8 8 1
9 8 1
10 8 1
11 8 1
12 8 1
13 8 1
14 8 1
15 8 1
16 8 1
17 8 1
18 8 1
19 8 1
20 8 1
21 8 1
22 8 1
23 8 1
24 8 1
25 8 1
26 8 1
27 8 1
28 8 1
29 8 1
30 8 1
31 8 1
32 8 1
33 8 1
34 8 1
35 8 1
36 8 1
37 8 1
38 8 1
39 8 1
40 8 1
41 8 1
42 8 1
43 8 1
44 8 1
45 8 1
46 8 1
47 8 1
48 8 1
49 8 1
0 9 1
1 9 1
2 9 1
3 9 1
4 9 1
5 9 1
6 9 1
7 9 1
8 9 1
9 9 1
10 9 1
11 9 1
12 9 1
13 9 1
14 9 1
15 9 1
16 9 1
17 9 1
18 9 1
19 9 1
20 9 1
21 9 1
22 9 1
23 9 1
24 9 1
25 9 1
26 9 1
27 9 1
28 9 1
29 9 1
30 9 1
31 9 1
32 9 1
33 9 1
34 9 1
35 9 1
36 9 1
37 9 1
38 9 1
39 9 1
40 9 1
41 9 1
42 9 1
43 9 1
44 9 1
45 9 1
46 9 1
47 9 1
48 9 1
49 9 1
0 0 2
1 0 2
2 0 2
3 0 2
4 0 2
5 0 2
6 0 2
7 0 2
8 0 2
9 0 2
10 0 2
11 0 2
12 0 2
13 0 2
14 0 2
15 0 2
16 0 2
17 0 2
18 0 2
19 0 2
20 0 2
21 0 2
22 0 2
23 0 2
24 0 2
25 0 2
26 0 2
27 0 2
28 0 2
29 0 2
30 0 2
31 0 2
32 0 2
33 0 2
34 0 2
35 0 2
36 0 2
37 0 2
38 0 2
39 0 2
40 0 2
41 0 2
42 0 2
43 0 2
44 0 2
45 0 2
46 0 2
47 0 2
48 0 2
49 0 2
0 1 2
1 1 2
2 1 2
3 1 2
4 1 2
5 1 2
6 1 2
7 1 2
8 1 2
9 1 2
10 1 2
11 1 2
12 1 2
13 1 2
14 1 2
15 1 2
16 1 2
17 1 2
18 1 2
19 1 2
20 1 2
21 1 2
22 1 2
23 1 2
24 1 2
25 1 2
26 1 2
27 1 2
28 1 2
29 1 2
30 1 2
31 1 2
32 1 2
33 1 2
34 1 2
35 1 2
36 1 2
37 1 2
38 1 2
39 1 2
40 1 2
41 1 2
42 1 2
43 1 2
44 1 2
45 1 2
46 1 2
47 1 2
48 1 2
49 1 2
0 2 2
1 2 2
2 2 2
3 2 2
4 2 2
5 2 2
6 2 2
7 2 2
8 2 2
9 2 2
10 2 2
11 2 2
12 2 2
13 2 2
14 2 2
15 2 2
16 2 2
17 2 2
18 2 2
19 2 2
20 2 2
21 2 2
22 2 2
23 2 2
24 2 2
25 2 2
26 2 2
27 2 2
28 2 2
29 2 2
30 2 2
31 2 2
32 2 2
33 2 2
34 2 2
35 2 2
36 2 2
37 2 2
38 2 2
39 2 2
40 2 2
41 2 2
42 2 2
43 2 2
44 2 2
45 2 2
46 2 2
47 2 2
48 2 2
49 2 2
0 3 2
1 3 2
2 3 2
3 3 2
4 3 2
5 3 2
6 3 2
7 3 2
8 3 2
9 3 2
10 3 2
11 3 2
12 3 2
13 3 2
14 3 2
15 3 2
16 3 2
17 3 2
18 3 2
19 3 2
20 3 2
21 3 2
22 3 2
23 3 2
24 3 2
25 3 2
26 3 2
27 3 2
28 3 2
29 3 2
30 3 2
31 3 2
32 3 2
33 3 2
34 3 2
35 3 2
36 3 2
37 3 2
38 3 2
39 3 2
40 3 2
41 3 2
42 3 2
43 3 2
44 3 2
45 3 2
46 3 2
47 3 2
48 3 2
49 3 2
0 4 2
1 4 2
2 4 2
3 4 2
4 4 2
5 4 2
6 4 2
7 4 2
8 4 2
9 4 2
10 4 2
11 4 2
12 4 2
13 4 2
14 4 2
15 4 2
16 4 2
17 4 2
18 4 2
19 4 2
20 4 2
21 4 2
22 4 2
23 4 2
24 4 2
25 4 2
26 4 2
27 4 2
28 4 2
29 4 2
30 4 2
31 4 2
32 4 2
33 4 2
34 4 2
35 4 2
36 4 2
37 4 2
38 4 2
39 4 2
40 4 2
41 4 2
42 4 2
43 4 2
44 4 2
45 4 2
46 4 2
47 4 2
48 4 2
49 4 2
0 5 2
1 5 2
2 5 2
3 5 2
4 5 2
5 5 2
6 5 2
7 5 2
8 5 2
9 5 2
10 5 2
11 5 2
12 5 2
13 5 2
14 5 2
15 5 2
16 5 2
17 5 2
18 5 2
19 5 2
20 5 2
21 5 2
22 5 2
23 5 2
24 5 2
25 5 2
26 5 2
27 5 2
28 5 2
29 5 2
30 5 2
31 5 2
32 5 2
33 5 2
34 5 2
35 5 2
36 5 2
37 5 2
38 5 2
39 5 2
40 5 2
41 5 2
42 5 2
43 5 2
44 5 2
45 5 2
46 5 2
47 5 2
48 5 2
49 5 2
0 6 2
1 6 2
2 6 2
3 6 2
4 6 2
5 6 2
6 6 2
7 6 2
8 6 2
9 6 2
10 6 2
11 6 2
12 6 2
13 6 2
14 6 2
15 6 2
16 6 2
17 6 2
18 6 2
19 6 2
20 6 2
21 6 2
22 6 2
23 6 2
24 6 2
25 6 2
26 6 2
27 6 2
28 6 2
29 6 2
30 6 2
31 6 2
32 6 2
33 6 2
34 6 2
35 6 2
36 6 2
37 6 2
38 6 2
39 6 2
40 6 2
41 6 2
42 6 2
43 6 2
44 6 2
45 6 2
46 6 2
47 6 2
48 6 2
49 6 2
0 7 2
1 7 2
2 7 2
3 7 2
4 7 2
5 7 2
6 7 2
7 7 2
8 7 2
9 7 2
10 7 2
11 7 2
12 7 2
13 7 2
14 7 2
15 7 2
16 7 2
17 7 2
18 7 2
19 7 2
20 7 2
21 7 2
22 7 2
23 7 2
24 7 2
25 7 2
26 7 2
27 7 2
28 7 2
29 7 2
30 7 2
31 7 2
32 7 2
33 7 2
34 7 2
35 7 2
36 7 2
37 7 2
38 7 2
39 7 2
40 7 2
41 7 2
42 7 2
43 7 2
44 7 2
45 7 2
46 7 2
47 7 2
48 7 2
49 7 2
0 8 2
1 8 2
2 8 2
3 8 2
4 8 2
5 8 2
6 8 2
7 8 2
8 8 2
9 8 2
10 8 2
11 8 2
12 8 2
13 8 2
14 8 2
15 8 2
16 8 2
17 8 2
18 8 2
19 8 2
20 8 2
21 8 2
22 8 2
23 8 2
24 8 2
25 8 2
26 8 2
27 8 2
28 8 2
29 8 2
30 8 2
31 8 2
32 8 2
33 8 2
34 8 2
35 8 2
36 8 2
37 8 2
38 8 2
39 8 2
40 8 2
41 8 2
42 8 2
43 8 2
44 8 2
45 8 2
46 8 2
47 8 2
48 8 2
49 8 2
0 9 2
1 9 2
2 9 2
3 9 2
4 9 2
[...]
POINT_DATA 15000
SCALARS sol425 float
LOOKUP_TABLE default
58.4506
58.4476
58.4445
58.4415
58.4384
58.4354
58.4323
58.4293
58.4262
58.4232
58.4202
58.4171
58.4141
58.411
58.408
58.4049
58.4019
58.3988
58.3958
58.3928
58.3897
58.3867
58.3836
58.3806
58.3776
58.3745
58.3715
58.3684
58.3654
58.3624
58.3593
58.3563
58.3533
58.3502
58.3472
58.3442
58.3411
58.3381
58.3351
58.332
58.329
58.326
58.3229
58.3199
58.3169
58.3138
58.3108
58.3078
58.3047
58.3017
58.2987
58.2956
58.2926
58.2896
58.2866
58.2835
58.2805
58.2775
58.2745
58.2714
58.2684
58.2654
58.2624
58.2593
58.2563
58.2533
58.2503
58.2472
58.2442
58.2412
58.2382
58.2352
58.2321
58.2291
58.2261
58.2231
58.2201
58.217
58.214
58.211
58.208
58.205
58.202
58.1989
58.1959
58.1929
58.1899
58.1869
58.1839
58.1809
58.1779
58.1748
58.1718
58.1688
58.1658
58.1628
58.1598
58.1568
58.1538
58.1508
58.1477
58.1447
58.1417
58.1387
58.1357
58.1327
58.1297
58.1267
58.1237
58.1207
58.1177
58.1147
58.1117
58.1087
58.1057
58.1027
58.0997
58.0967
58.0937
58.0907
58.0877
58.0847
58.0817
58.0787
58.0757
58.0727
58.0697
58.0667
58.0637
58.0607
58.0577
58.0547
58.0517
58.0487
58.0457
58.0427
58.0397
58.0367
58.0337
58.0307
58.0277
58.0247
58.0217
58.0187
58.0158
58.0128
58.0098
58.0068
58.0038
58.0008
57.9978
57.9948
57.9918
57.9889
57.9859
57.9829
57.9799
57.9769
57.9739
57.9709
57.9679
57.965
57.962
57.959
57.956
57.953
57.95
57.9471
57.9441
57.9411
57.9381
57.9351
57.9322
57.9292
57.9262
57.9232
57.9202
57.9173
57.9143
57.9113
57.9083
57.9054
57.9024
57.8994
57.8964
57.8935
57.8905
57.8875
57.8845
57.8816
57.8786
57.8756
57.8726
57.8697
57.8667
57.8637
57.8608
57.8578
57.8548
57.8519
57.8489
57.8459
57.8429
57.84
57.837
57.834
57.8311
57.8281
57.8251
57.8222
57.8192
57.8163
57.8133
57.8103
57.8074
57.8044
57.8014
57.7985
57.7955
57.7926
57.7896
57.7866
57.7837
57.7807
57.7778
57.7748
57.7718
57.7689
57.7659
57.763
57.76
57.7571
57.7541
57.7511
57.7482
57.7452
57.7423
57.7393
57.7364
57.7334
57.7305
57.7275
57.7246
57.7216
57.7187
57.7157
57.7128
57.7098
57.7069
57.7039
57.701
57.698
57.6951
57.6921
57.6892
57.6862
57.6833
57.6803
57.6774
57.6744
57.6715
57.6685
57.6656
57.6627
57.6597
57.6568
57.6538
57.6509
57.6479
57.645
57.6421
57.6391
57.6362
57.6332
57.6303
57.6274
57.6244
57.6215
57.6185
57.6156
57.6127
57.6097
57.6068
57.6039
57.6009
57.598
57.5951
57.5921
57.5892
57.5863
57.5833
57.5804
57.5775
57.5745
57.5716
57.5687
57.5657
57.5628
57.5599
57.5569
57.554
57.5511
57.5482
57.5452
57.5423
57.5394
57.5365
57.5335
57.5306
57.5277
57.5247
57.5218
57.5189
57.516
57.5131
57.5101
57.5072
57.5043
57.5014
57.4984
57.4955
57.4926
57.4897
57.4868
57.4838
57.4809
57.478
57.4751
57.4722
57.4692
57.4663
57.4634
57.4605
57.4576
57.4547
57.4517
57.4488
57.4459
57.443
57.4401
57.4372
57.4343
57.4314
57.4284
57.4255
57.4226
57.4197
57.4168
57.4139
57.411
57.4081
57.4052
57.4023
57.3993
57.3964
57.3935
57.3906
57.3877
57.3848
57.3819
57.379
57.3761
57.3732
57.3703
57.3674
57.3645
57.3616
57.3587
57.3558
57.3529
57.35
57.3471
57.3442
57.3413
57.3384
57.3355
57.3326
57.3297
57.3268
57.3239
57.321
57.3181
57.3152
57.3123
57.3094
57.3065
57.3036
57.3007
57.2978
57.2949
57.292
57.2891
57.2862
57.2833
57.2804
57.2776
57.2747
57.2718
57.2689
57.266
57.2631
57.2602
57.2573
57.2544
57.2515
57.2487
57.2458
57.2429
57.24
57.2371
57.2342
57.2313
57.2285
57.2256
57.2227
57.2198
57.2169
57.214
57.2112
57.2083
57.2054
57.2025
57.1996
57.1968
57.1939
57.191
57.1881
57.1852
57.1824
57.1795
57.1766
57.1737
57.1708
57.168
57.1651
57.1622
57.1593
57.1565
57.1536
57.1507
57.1478
57.145
57.1421
57.1392
57.1363
57.1335
57.1306
57.1277
57.1249
57.122
57.1191
57.1163
57.1134
57.1105
57.1076
57.1048
57.1019
57.099
57.0962
57.0933
57.0904
57.0876
57.0847
57.0818
57.079
57.0761
57.0733
57.0704
57.0675
57.0647
57.0618
57.0589
57.0561
57.0532
57.0504
57.0475
57.0446
57.0418
57.0389
57.0361
57.0332
57.0303
57.0275
57.0246
57.0218
57.0189
57.0161
57.0132
57.0104
57.0075
57.0046
57.0018
56.9989
56.9961
56.9932
56.9904
56.9875
56.9847
56.9818
56.979
56.9761
56.9733
56.9704
56.9676
56.9647
56.9619
56.959
56.9562
56.9533
56.9505
56.9476
56.9448
56.9419
56.9391
56.9363
56.9334
56.9306
56.9277
56.9249
56.922
56.9192
56.9163
56.9135
56.9107
56.9078
56.905
56.9021
56.8993
56.8965
56.8936
56.8908
56.8879
56.8851
56.8823
56.8794
56.8766
56.8738
56.8709
56.8681
56.8653
56.8624
56.8596
56.8567
56.8539
56.8511
56.8482
56.8454
56.8426
56.8398
56.8369
56.8341
56.8313
56.8284
56.8256
56.8228
56.8199
56.8171
56.8143
56.8115
56.8086
56.8058
56.803
56.8001
56.7973
56.7945
56.7917
56.7888
56.786
56.7832
56.7804
56.7775
56.7747
56.7719
56.7691
56.7663
56.7634
56.7606
56.7578
56.755
56.7522
56.7493
56.7465
56.7437
56.7409
56.7381
56.7352
56.7324
56.7296
56.7268
56.724
56.7212
56.7183
56.7155
56.7127
56.7099
56.7071
56.7043
56.7015
56.6987
56.6958
56.693
56.6902
56.6874
56.6846
56.6818
56.679
56.6762
56.6734
56.6706
56.6677
56.6649
56.6621
56.6593
56.6565
56.6537
56.6509
56.6481
56.6453
56.6425
56.6397
56.6369
56.6341
56.6313
56.6285
56.6257
56.6229
56.6201
56.6173
56.6145
56.6117
56.6089
56.6061
56.6033
56.6005
56.5977
56.5949
56.5921
56.5893
56.5865
56.5837
56.5809
56.5781
56.5753
56.5725
56.5697
56.5669
56.5641
56.5613
56.5585
56.5557
56.5529
56.5501
56.5474
56.5446
56.5418
56.539
56.5362
56.5334
56.5306
56.5278
56.525
56.5222
56.5195
56.5167
56.5139
56.5111
56.5083
56.5055
56.5027
56.5
56.4972
56.4944
56.4916
56.4888
56.486
56.4833
56.4805
56.4777
56.4749
56.4721
56.4693
56.4666
56.4638
56.461
56.4582
56.4554
56.4527
56.4499
56.4471
56.4443
56.4416
56.4388
56.436
56.4332
56.4305
56.4277
56.4249
56.4221
56.4194
56.4166
56.4138
56.411
56.4083
56.4055
56.4027
56.3999
56.3972
56.3944
56.3916
56.3889
56.3861
56.3833
56.3806
56.3778
56.375
56.3723
56.3695
56.3667
56.364
56.3612
56.3584
56.3557
56.3529
56.3501
56.3474
56.3446
56.3418
56.3391
56.3363
56.3336
56.3308
56.328
56.3253
56.3225
56.3197
56.317
56.3142
56.3115
56.3087
56.306
56.3032
56.3004
56.2977
56.2949
56.2922
56.2894
56.2867
56.2839
56.2811
56.2784
56.2756
56.2729
56.2701
56.2674
56.2646
56.2619
56.2591
56.2564
56.2536
56.2509
56.2481
56.2454
56.2426
56.2399
56.2371
56.2344
56.2316
56.2289
56.2261
56.2234
56.2206
56.2179
56.2151
56.2124
56.2097
56.2069
56.2042
56.2014
56.1987
56.1959
56.1932
56.1905
56.1877
56.185
56.1822
56.1795
56.1767
56.174
56.1713
56.1685
56.1658
56.1631
56.1603
56.1576
56.1548
56.1521
56.1494
56.1466
56.1439
56.1412
56.1384
56.1357
56.133
56.1302
56.1275
56.1248
56.122
56.1193
56.1166
56.1138
56.1111
56.1084
56.1056
56.1029
56.1002
56.0974
56.0947
56.092
56.0893
56.0865
56.0838
56.0811
56.0783
56.0756
56.0729
56.0702
56.0674
56.0647
56.062
56.0593
56.0566
56.0538
56.0511
56.0484
56.0457
56.0429
56.0402
56.0375
56.0348
56.0321
56.0293
56.0266
56.0239
56.0212
56.0185
56.0157
56.013
56.0103
56.0076
56.0049
56.0022
55.9994
55.9967
55.994
55.9913
55.9886
55.9859
55.9832
55.9804
55.9777
55.975
55.9723
55.9696
55.9669
55.9642
55.9615
55.9588
55.956
55.9533
55.9506
55.9479
55.9452
55.9425
55.9398
55.9371
55.9344
55.9317
55.929
55.9263
55.9236
55.9209
55.9182
55.9154
55.9127
55.91
55.9073
55.9046
55.9019
55.8992
55.8965
55.8938
55.8911
55.8884
55.8857
55.883
55.8803
55.8776
55.8749
55.8722
55.8695
55.8668
55.8641
55.8615
55.8588
55.8561
55.8534
55.8507
55.848
55.8453
55.8426
55.8399
55.8372
55.8345
55.8318
55.8291
55.8264
55.8237
55.8211
55.8184
55.8157
55.813
55.8103
55.8076
55.8049
55.8022
55.7995
55.7969
55.7942
55.7915
55.7888
55.7861
55.7834
55.7807
55.7781
55.7754
55.7727
55.77
55.7673
55.7646
55.762
55.7593
55.7566
55.7539
55.7512
55.7486
55.7459
55.7432
55.7405
55.7378
55.7352
55.7325
55.7298
55.7271
55.7244
55.7218
55.7191
55.7164
55.7137
55.7111
55.7084
55.7057
55.703
55.7004
55.6977
55.695
55.6923
55.6897
55.687
55.6843
55.6817
55.679
55.6763
55.6737
55.671
55.6683
55.6656
55.663
55.6603
55.6576
55.655
55.6523
55.6496
55.647
55.6443
55.6416
55.639
55.6363
55.6336
55.631
55.6283
55.6257
55.623
55.6203
55.6177
55.615
55.6123
55.6097
55.607
55.6044
55.6017
55.599
55.5964
55.5937
55.5911
55.5884
55.5858
55.5831
55.5804
55.5778
55.5751
55.5725
55.5698
55.5672
55.5645
55.5619
55.5592
55.5565
55.5539
55.5512
55.5486
55.5459
55.5433
55.5406
55.538
55.5353
55.5327
55.53
55.5274
55.5247
55.5221
55.5194
55.5168
55.5141
55.5115
55.5089
55.5062
55.5036
55.5009
55.4983
55.4956
55.493
55.4903
55.4877
55.4851
55.4824
55.4798
55.4771
55.4745
55.4718
55.4692
55.4666
55.4639
55.4613
55.4586
55.456
55.4534
55.4507
55.4481
55.4454
55.4428
55.4402
55.4375
55.4349
55.4323
55.4296
55.427
55.4244
55.4217
55.4191
55.4165
55.4138
55.4112
55.4086
55.4059
55.4033
55.4007
55.398
55.3954
55.3928
55.3901
55.3875
55.3849
55.3823
55.3796
55.377
55.3744
55.3717
55.3691
55.3665
55.3639
55.3612
55.3586
55.356
55.3534
55.3507
55.3481
55.3455
55.3429
55.3402
55.3376
55.335
55.3324
55.3298
55.3271
55.3245
55.3219
55.3193
55.3167
55.314
55.3114
55.3088
55.3062
55.3036
55.301
55.2983
55.2957
55.2931
55.2905
55.2879
55.2853
55.2826
55.28
55.2774
55.2748
55.2722
55.2696
55.267
55.2643
55.2617
55.2591
55.2565
55.2539
55.2513
55.2487
55.2461
55.2435
55.2409
55.2383
55.2356
55.233
55.2304
55.2278
55.2252
55.2226
55.22
55.2174
55.2148
55.2122
55.2096
55.207
55.2044
55.2018
55.1992
55.1966
55.194
55.1914
55.1888
55.1862
55.1836
55.181
55.1784
55.1758
55.1732
55.1706
55.168
55.1654
55.1628
55.1602
55.1576
55.155
55.1524
55.1498
55.1472
55.1446
55.142
55.1394
55.1368
55.1342
55.1316
55.129
55.1264
55.1239
55.1213
55.1187
55.1161
55.1135
55.1109
55.1083
55.1057
55.1031
55.1005
55.098
55.0954
55.0928
55.0902
55.0876
55.085
55.0824
55.0798
55.0773
55.0747
55.0721
55.0695
55.0669
55.0643
55.0618
55.0592
55.0566
55.054
55.0514
55.0489
55.0463
55.0437
55.0411
55.0385
55.036
55.0334
55.0308
55.0282
55.0256
55.0231
55.0205
55.0179
55.0153
55.0128
55.0102
55.0076
55.005
55.0025
54.9999
54.9973
54.9947
54.9922
54.9896
54.987
54.9844
54.9819
54.9793
54.9767
54.9742
54.9716
54.969
54.9664
54.9639
54.9613
54.9587
54.9562
54.9536
54.951
54.9485
54.9459
54.9433
54.9408
54.9382
54.9356
54.9331
54.9305
54.928
54.9254
54.9228
54.9203
54.9177
54.9151
54.9126
54.91
54.9075
54.9049
54.9023
54.8998
54.8972
54.8947
54.8921
54.8895
54.887
54.8844
54.8819
54.8793
54.8768
54.8742
54.8716
54.8691
54.8665
54.864
54.8614
54.8589
54.8563
54.8538
54.8512
54.8487
54.8461
54.8436
54.841
54.8384
54.8359
54.8333
54.8308
54.8282
54.8257
54.8231
54.8206
54.8181
54.8155
54.813
54.8104
54.8079
54.8053
54.8028
54.8002
54.7977
54.7951
54.7926
54.79
54.7875
54.785
54.7824
54.7799
54.7773
54.7748
54.7723
54.7697
54.7672
54.7646
54.7621
54.7595
54.757
54.7545
54.7519
54.7494
54.7469
54.7443
54.7418
54.7392
54.7367
54.7342
54.7316
54.7291
54.7266
54.724
54.7215
54.719
54.7164
54.7139
54.7114
54.7088
54.7063
54.7038
54.7012
54.6987
54.6962
54.6936
54.6911
54.6886
54.6861
54.6835
54.681
54.6785
54.6759
54.6734
54.6709
54.6684
54.6658
54.6633
54.6608
54.6583
54.6557
54.6532
54.6507
54.6482
54.6456
54.6431
54.6406
54.6381
54.6356
54.633
54.6305
54.628
54.6255
54.623
54.6204
54.6179
54.6154
54.6129
54.6104
54.6078
54.6053
54.6028
54.6003
54.5978
54.5953
54.5927
54.5902
54.5877
54.5852
54.5827
54.5802
54.5777
54.5751
54.5726
54.5701
54.5676
54.5651
54.5626
54.5601
54.5576
54.5551
54.5525
54.55
54.5475
54.545
54.5425
54.54
54.5375
54.535
54.5325
54.53
54.5275
54.525
54.5225
54.52
54.5174
54.5149
54.5124
54.5099
54.5074
54.5049
54.5024
54.4999
54.4974
54.4949
54.4924
54.4899
54.4874
54.4849
54.4824
54.4799
54.4774
54.4749
54.4724
54.4699
54.4674
54.4649
54.4624
54.4599
54.4574
54.455
54.4525
54.45
54.4475
54.445
54.4425
54.44
54.4375
54.435
54.4325
54.43
54.4275
54.425
54.4225
54.4201
54.4176
54.4151
54.4126
54.4101
54.4076
54.4051
54.4026
54.4001
54.3977
54.3952
54.3927
54.3902
54.3877
54.3852
54.3827
54.3803
54.3778
54.3753
54.3728
54.3703
54.3678
54.3654
54.3629
54.3604
54.3579
54.3554
54.3529
54.3505
54.348
54.3455
54.343
54.3405
54.3381
54.3356
54.3331
54.3306
54.3282
54.3257
54.3232
54.3207
54.3183
54.3158
54.3133
54.3108
54.3084
54.3059
54.3034
54.3009
54.2985
54.296
54.2935
54.291
54.2886
54.2861
54.2836
54.2812
54.2787
54.2762
54.2738
54.2713
54.2688
54.2664
54.2639
54.2614
54.259
54.2565
54.254
54.2516
54.2491
54.2466
54.2442
54.2417
54.2392
54.2368
54.2343
54.2318
54.2294
54.2269
54.2245
54.222
54.2195
54.2171
54.2146
54.2121
54.2097
54.2072
54.2048
54.2023
54.1999
54.1974
54.1949
54.1925
54.19
54.1876
54.1851
54.1827
54.1802
54.1777
54.1753
54.1728
54.1704
54.1679
54.1655
54.163
54.1606
54.1581
54.1557
54.1532
54.1508
54.1483
54.1459
54.1434
54.141
54.1385
54.1361
54.1336
54.1312
54.1287
54.1263
54.1238
54.1214
54.1189
54.1165
54.114
54.1116
54.1092
54.1067
54.1043
54.1018
54.0994
54.0969
54.0945
54.092
54.0896
54.0872
54.0847
54.0823
54.0798
54.0774
54.075
54.0725
54.0701
54.0676
54.0652
54.0628
54.0603
54.0579
54.0555
54.053
54.0506
54.0481
54.0457
54.0433
54.0408
54.0384
54.036
54.0335
54.0311
54.0287
54.0262
54.0238
54.0214
54.0189
54.0165
54.0141
54.0116
54.0092
54.0068
54.0044
54.0019
53.9995
53.9971
53.9946
53.9922
53.9898
53.9874
53.9849
53.9825
53.9801
53.9777
53.9752
53.9728
53.9704
53.968
53.9655
53.9631
53.9607
53.9583
53.9558
53.9534
53.951
53.9486
53.9462
53.9437
53.9413
53.9389
53.9365
53.9341
53.9316
53.9292
53.9268
53.9244
53.922
53.9196
53.9171
53.9147
53.9123
53.9099
53.9075
53.9051
53.9026
53.9002
53.8978
53.8954
53.893
53.8906
53.8882
53.8858
53.8833
53.8809
53.8785
53.8761
53.8737
53.8713
53.8689
53.8665
53.8641
53.8617
53.8592
53.8568
53.8544
53.852
53.8496
53.8472
53.8448
53.8424
53.84
53.8376
53.8352
53.8328
53.8304
53.828
53.8256
53.8232
53.8208
53.8184
53.816
53.8136
53.8112
53.8088
53.8064
53.804
53.8016
53.7992
53.7968
53.7944
53.792
53.7896
53.7872
53.7848
53.7824
53.78
53.7776
53.7752
53.7728
53.7704
53.768
53.7656
53.7632
53.7608
53.7584
53.756
53.7536
53.7513
53.7489
53.7465
53.7441
53.7417
53.7393
53.7369
53.7345
53.7321
53.7297
53.7274
53.725
53.7226
53.7202
53.7178
53.7154
53.713
53.7106
53.7083
53.7059
53.7035
53.7011
53.6987
53.6963
53.694
53.6916
53.6892
53.6868
53.6844
53.682
53.6797
53.6773
53.6749
53.6725
53.6701
53.6678
53.6654
53.663
53.6606
53.6582
53.6559
53.6535
53.6511
53.6487
53.6464
53.644
53.6416
53.6392
53.6369
53.6345
53.6321
53.6297
53.6274
53.625
53.6226
53.6202
53.6179
53.6155
53.6131
53.6108
53.6084
53.606
53.6036
53.6013
53.5989
53.5965
53.5942
53.5918
53.5894
53.5871
53.5847
53.5823
53.58
53.5776
53.5752
53.5729
53.5705
53.5681
53.5658
53.5634
53.561
53.5587
53.5563
53.554
53.5516
53.5492
53.5469
53.5445
53.5421
53.5398
53.5374
53.5351
53.5327
53.5303
53.528
53.5256
53.5233
53.5209
53.5186
53.5162
53.5138
53.5115
53.5091
53.5068
53.5044
53.5021
53.4997
53.4974
53.495
53.4927
53.4903
53.4879
53.4856
53.4832
53.4809
53.4785
53.4762
53.4738
53.4715
53.4691
53.4668
53.4644
53.4621
53.4597
53.4574
53.455
53.4527
53.4504
53.448
53.4457
53.4433
53.441
53.4386
53.4363
53.4339
53.4316
53.4292
53.4269
53.4246
53.4222
53.4199
53.4175
53.4152
53.4128
53.4105
53.4082
53.4058
53.4035
53.4011
53.3988
53.3965
53.3941
53.3918
53.3895
53.3871
53.3848
53.3824
53.3801
53.3778
53.3754
53.3731
53.3708
53.3684
53.3661
53.3638
53.3614
53.3591
53.3568
53.3544
53.3521
53.3498
53.3474
53.3451
53.3428
53.3404
53.3381
53.3358
53.3334
53.3311
53.3288
53.3265
53.3241
53.3218
53.3195
53.3172
53.3148
53.3125
53.3102
53.3078
53.3055
53.3032
53.3009
53.2985
53.2962
53.2939
53.2916
53.2893
53.2869
53.2846
53.2823
53.28
53.2776
53.2753
53.273
53.2707
53.2684
53.266
53.2637
53.2614
53.2591
53.2568
53.2545
53.2521
53.2498
53.2475
53.2452
53.2429
53.2406
53.2382
53.2359
53.2336
53.2313
53.229
53.2267
53.2244
53.222
53.2197
53.2174
53.2151
53.2128
53.2105
53.2082
53.2059
53.2036
53.2013
53.1989
53.1966
53.1943
53.192
53.1897
53.1874
53.1851
53.1828
53.1805
53.1782
53.1759
53.1736
53.1713
53.169
53.1667
53.1643
53.162
53.1597
53.1574
53.1551
53.1528
53.1505
53.1482
53.1459
53.1436
53.1413
53.139
53.1367
53.1344
53.1321
53.1298
53.1275
53.1252
53.1229
53.1206
53.1183
53.116
53.1137
53.1115
53.1092
53.1069
53.1046
53.1023
53.1
53.0977
53.0954
53.0931
53.0908
53.0885
53.0862
53.0839
53.0816
53.0793
53.0771
53.0748
53.0725
53.0702
53.0679
53.0656
53.0633
53.061
53.0587
53.0565
53.0542
53.0519
53.0496
53.0473
53.045
53.0427
53.0405
53.0382
53.0359
53.0336
53.0313
53.029
53.0268
53.0245
53.0222
53.0199
53.0176
53.0153
53.0131
53.0108
53.0085
53.0062
53.0039
53.0017
52.9994
52.9971
52.9948
52.9926
52.9903
52.988
52.9857
52.9834
52.9812
52.9789
52.9766
52.9743
52.9721
52.9698
52.9675
52.9652
52.963
52.9607
52.9584
52.9562
52.9539
52.9516
52.9493
52.9471
52.9448
52.9425
52.9403
52.938
52.9357
52.9335
52.9312
52.9289
52.9266
52.9244
52.9221
52.9198
52.9176
52.9153
52.913
52.9108
52.9085
52.9063
52.904
52.9017
52.8995
52.8972
52.8949
52.8927
52.8904
52.8882
52.8859
52.8836
52.8814
52.8791
52.8768
52.8746
52.8723
52.8701
52.8678
52.8656
52.8633
52.861
52.8588
52.8565
52.8543
52.852
52.8498
52.8475
52.8452
52.843
52.8407
52.8385
52.8362
52.834
52.8317
52.8295
52.8272
52.825
52.8227
52.8205
52.8182
52.816
52.8137
52.8115
52.8092
52.807
52.8047
52.8025
52.8002
52.798
52.7957
52.7935
52.7912
52.789
52.7867
52.7845
52.7822
52.78
52.7777
52.7755
52.7733
52.771
52.7688
52.7665
52.7643
52.762
52.7598
52.7576
52.7553
52.7531
52.7508
52.7486
52.7464
52.7441
52.7419
52.7396
52.7374
52.7352
52.7329
52.7307
52.7285
52.7262
52.724
52.7217
52.7195
52.7173
52.715
52.7128
52.7106
52.7083
52.7061
52.7039
52.7016
52.6994
52.6972
52.6949
52.6927
52.6905
52.6882
52.686
52.6838
52.6815
52.6793
52.6771
52.6749
52.6726
52.6704
52.6682
52.6659
52.6637
52.6615
52.6593
52.657
52.6548
52.6526
52.6504
52.6481
52.6459
52.6437
52.6415
52.6392
52.637
52.6348
52.6326
52.6304
52.6281
52.6259
52.6237
52.6215
52.6193
52.617
52.6148
52.6126
52.6104
52.6082
52.6059
52.6037
52.6015
52.5993
52.5971
52.5948
52.5926
52.5904
52.5882
52.586
52.5838
52.5816
52.5793
52.5771
52.5749
52.5727
52.5705
52.5683
52.5661
52.5639
52.5616
52.5594
52.5572
52.555
52.5528
52.5506
52.5484
52.5462
52.544
52.5418
52.5395
52.5373
52.5351
52.5329
52.5307
52.5285
52.5263
52.5241
52.5219
52.5197
52.5175
52.5153
52.5131
52.5109
52.5087
52.5065
52.5043
52.5021
52.4999
52.4977
52.4955
52.4933
52.4911
52.4889
52.4867
52.4845
52.4823
52.4801
52.4779
52.4757
52.4735
52.4713
52.4691
52.4669
52.4647
52.4625
52.4603
52.4581
52.4559
52.4537
52.4515
52.4493
52.4471
52.4449
52.4427
52.4405
52.4384
52.4362
52.434
52.4318
52.4296
52.4274
52.4252
52.423
52.4208
52.4186
52.4164
52.4143
52.4121
52.4099
52.4077
52.4055
52.4033
52.4011
52.3989
52.3968
52.3946
52.3924
52.3902
52.388
52.3858
52.3837
52.3815
52.3793
52.3771
52.3749
52.3727
52.3706
52.3684
52.3662
52.364
52.3618
52.3597
52.3575
52.3553
52.3531
52.3509
52.3488
52.3466
52.3444
52.3422
52.3401
52.3379
52.3357
52.3335
52.3314
52.3292
52.327
52.3248
52.3227
52.3205
52.3183
52.3161
52.314
52.3118
52.3096
52.3074
52.3053
52.3031
52.3009
52.2988
52.2966
52.2944
52.2922
52.2901
52.2879
52.2857
52.2836
52.2814
52.2792
52.2771
52.2749
52.2727
52.2706
52.2684
52.2662
52.2641
52.2619
52.2597
52.2576
52.2554
52.2533
52.2511
52.2489
52.2468
52.2446
52.2424
52.2403
52.2381
52.236
52.2338
52.2316
52.2295
52.2273
52.2252
52.223
52.2209
52.2187
52.2165
52.2144
52.2122
52.2101
52.2079
52.2058
52.2036
52.2014
52.1993
52.1971
52.195
52.1928
52.1907
52.1885
52.1864
52.1842
52.1821
52.1799
52.1778
52.1756
52.1735
52.1713
52.1692
52.167
52.1649
52.1627
52.1606
52.1584
52.1563
52.1541
52.152
52.1498
52.1477
52.1455
52.1434
52.1412
52.1391
52.1369
52.1348
52.1327
52.1305
52.1284
52.1262
52.1241
52.1219
52.1198
52.1177
52.1155
52.1134
52.1112
52.1091
52.107
52.1048
52.1027
52.1005
52.0984
52.0963
52.0941
52.092
52.0898
52.0877
52.0856
52.0834
52.0813
52.0792
52.077
52.0749
52.0728
52.0706
52.0685
52.0664
52.0642
52.0621
52.06
52.0578
52.0557
52.0536
52.0514
52.0493
52.0472
52.045
52.0429
52.0408
52.0386
52.0365
52.0344
52.0323
52.0301
52.028
52.0259
52.0238
52.0216
52.0195
52.0174
52.0152
52.0131
52.011
52.0089
52.0067
52.0046
52.0025
52.0004
51.9983
51.9961
51.994
51.9919
51.9898
51.9876
51.9855
51.9834
51.9813
51.9792
51.977
51.9749
51.9728
51.9707
51.9686
51.9664
51.9643
51.9622
51.9601
51.958