# vtk DataFile Version 2.0
vtk output
ASCII
DATASET STRUCTURED_GRID
DIMENSIONS 50 10 30
POINTS 15000 float
0 0 0
1 0 0
2 0 0
3 0 0
4 0 0
5 0 0
6 0 0
7 0 0
8 0 0
9 0 0
10 0 0
11 0 0
12 0 0
13 0 0
14 0 0
15 0 0
16 0 0
17 0 0
18 0 0
19 0 0
20 0 0
21 0 0
22 0 0
23 0 0
24 0 0
25 0 0
26 0 0
27 0 0
28 0 0
29 0 0
30 0 0
31 0 0
32 0 0
33 0 0
34 0 0
35 0 0
36 0 0
37 0 0
38 0 0
39 0 0
40 0 0
41 0 0
42 0 0
43 0 0
44 0 0
45 0 0
46 0 0
47 0 0
48 0 0
49 0 0
0 1 0
1 1 0
2 1 0
3 1 0
4 1 0
5 1 0
6 1 0
7 1 0
8 1 0
9 1 0
10 1 0
11 1 0
12 1 0
13 1 0
14 1 0
15 1 0
16 1 0
17 1 0
18 1 0
19 1 0
20 1 0
21 1 0
22 1 0
23 1 0
24 1 0
25 1 0
26 1 0
27 1 0
28 1 0
29 1 0
30 1 0
31 1 0
32 1 0
33 1 0
34 1 0
35 1 0
36 1 0
37 1 0
38 1 0
39 1 0
40 1 0
41 1 0
42 1 0
43 1 0
44 1 0
45 1 0
46 1 0
47 1 0
48 1 0
49 1 0
0 2 0
1 2 0
2 2 0
3 2 0
4 2 0
5 2 0
6 2 0
7 2 0
8 2 0
9 2 0
10 2 0
11 2 0
12 2 0
13 2 0
14 2 0
15 2 0
16 2 0
17 2 0
18 2 0
19 2 0
20 2 0
21 2 0
22 2 0
23 2 0
24 2 0
25 2 0
26 2 0
27 2 0
28 2 0
29 2 0
30 2 0
31 2 0
32 2 0
33 2 0
34 2 0
35 2 0
36 2 0
37 2 0
38 2 0
39 2 0
40 2 0
41 2 0
42 2 0
43 2 0
44 2 0
45 2 0
46 2 0
47 2 0
48 2 0
49 2 0
0 3 0
1 3 0
2 3 0
3 3 0
4 3 0
5 3 0
6 3 0
7 3 0
8 3 0
9 3 0
10 3 0
11 3 0
12 3 0
13 3 0
14 3 0
15 3 0
16 3 0
17 3 0
18 3 0
19 3 0
20 3 0
21 3 0
22 3 0
23 3 0
24 3 0
25 3 0
26 3 0
27 3 0
28 3 0
29 3 0
30 3 0
31 3 0
32 3 0
33 3 0
34 3 0
35 3 0
36 3 0
37 3 0
38 3 0
39 3 0
40 3 0
41 3 0
42 3 0
43 3 0
44 3 0
45 3 0
46 3 0
47 3 0
48 3 0
49 3 0
0 4 0
1 4 0
2 4 0
3 4 0
4 4 0
5 4 0
6 4 0
7 4 0
8 4 0
9 4 0
10 4 0
11 4 0
12 4 0
13 4 0
14 4 0
15 4 0
16 4 0
17 4 0
18 4 0
19 4 0
20 4 0
21 4 0
22 4 0
23 4 0
24 4 0
25 4 0
26 4 0
27 4 0
28 4 0
29 4 0
30 4 0
31 4 0
32 4 0
33 4 0
34 4 0
35 4 0
36 4 0
37 4 0
38 4 0
39 4 0
40 4 0
41 4 0
42 4 0
43 4 0
44 4 0
45 4 0
46 4 0
47 4 0
48 4 0
49 4 0
0 5 0
1 5 0
2 5 0
3 5 0
4 5 0
5 5 0
6 5 0
7 5 0
8 5 0
9 5 0
10 5 0
11 5 0
12 5 0
13 5 0
14 5 0
15 5 0
16 5 0
17 5 0
18 5 0
19 5 0
20 5 0
21 5 0
22 5 0
23 5 0
24 5 0
25 5 0
26 5 0
27 5 0
28 5 0
29 5 0
30 5 0
31 5 0
32 5 0
33 5 0
34 5 0
35 5 0
36 5 0
37 5 0
38 5 0
39 5 0
40 5 0
41 5 0
42 5 0
43 5 0
44 5 0
45 5 0
46 5 0
47 5 0
48 5 0
49 5 0
0 6 0
1 6 0
2 6 0
3 6 0
4 6 0
5 6 0
6 6 0
7 6 0
8 6 0
9 6 0
10 6 0
11 6 0
12 6 0
13 6 0
14 6 0
15 6 0
16 6 0
17 6 0
18 6 0
19 6 0
20 6 0
21 6 0
22 6 0
23 6 0
24 6 0
25 6 0
26 6 0
27 6 0
28 6 0
29 6 0
30 6 0
31 6 0
32 6 0
33 6 0
34 6 0
35 6 0
36 6 0
37 6 0
38 6 0
39 6 0
40 6 0
41 6 0
42 6 0
43 6 0
44 6 0
45 6 0
46 6 0
47 6 0
48 6 0
49 6 0
0 7 0
1 7 0
2 7 0
3 7 0
4 7 0
5 7 0
6 7 0
7 7 0
8 7 0
9 7 0
10 7 0
11 7 0
12 7 0
13 7 0
14 7 0
15 7 0
16 7 0
17 7 0
18 7 0
19 7 0
20 7 0
21 7 0
22 7 0
23 7 0
24 7 0
25 7 0
26 7 0
27 7 0
28 7 0
29 7 0
30 7 0
31 7 0
32 7 0
33 7 0
34 7 0
35 7 0
36 7 0
37 7 0
38 7 0
39 7 0
40 7 0
41 7 0
42 7 0
43 7 0
44 7 0
45 7 0
46 7 0
47 7 0
48 7 0
49 7 0
0 8 0
1 8 0
2 8 0
3 8 0
4 8 0
5 8 0
6 8 0
7 8 0
8 8 0
9 8 0
10 8 0
11 8 0
12 8 0
13 8 0
14 8 0
15 8 0
16 8 0
17 8 0
18 8 0
19 8 0
20 8 0
21 8 0
22 8 0
23 8 0
24 8 0
25 8 0
26 8 0
27 8 0
28 8 0
29 8 0
30 8 0
31 8 0
32 8 0
33 8 0
34 8 0
35 8 0
36 8 0
37 8 0
38 8 0
39 8 0
40 8 0
41 8 0
42 8 0
43 8 0
44 8 0
45 8 0
46 8 0
47 8 0
48 8 0
49 8 0
0 9 0
1 9 0
2 9 0
3 9 0
4 9 0
5 9 0
6 9 0
7 9 0
8 9 0
9 9 0
10 9 0
11 9 0
12 9 0
13 9 0
14 9 0
15 9 0
16 9 0
17 9 0
18 9 0
19 9 0
20 9 0
21 9 0
22 9 0
23 9 0
24 9 0
25 9 0
26 9 0
27 9 0
28 9 0
29 9 0
30 9 0
31 9 0
32 9 0
33 9 0
34 9 0
35 9 0
36 9 0
37 9 0
38 9 0
39 9 0
40 9 0
41 9 0
42 9 0
43 9 0
44 9 0
45 9 0
46 9 0
47 9 0
48 9 0
49 9 0
0 0 1
1 0 1
2 0 1
3 0 1
4 0 1
5 0 1
6 0 1
7 0 1
8 0 1
9 0 1
10 0 1
11 0 1
12 0 1
13 0 1
14 0 1
15 0 1
16 0 1
17 0 1
18 0 1
19 0 1
20 0 1
21 0 1
22 0 1
23 0 1
24 0 1
25 0 1
26 0 1
27 0 1
28 0 1
29 0 1
30 0 1
31 0 1
32 0 1
33 0 1
34 0 1
35 0 1
36 0 1
37 0 1
38 0 1
39 0 1
40 0 1
41 0 1
42 0 1
43 0 1
44 0 1
45 0 1
46 0 1
47 0 1
48 0 1
49 0 1
0 1 1
1 1 1
2 1 1
3 1 1
4 1 1
5 1 1
6 1 1
7 1 1
8 1 1
9 1 1
10 1 1
11 1 1
12 1 1
13 1 1
14 1 1
15 1 1
16 1 1
17 1 1
18 1 1
19 1 1
20 1 1
21 1 1
22 1 1
23 1 1
24 1 1
25 1 1
26 1 1
27 1 1
28 1 1
29 1 1
30 1 1
31 1 1
32 1 1
33 1 1
34 1 1
35 1 1
36 1 1
37 1 1
38 1 1
39 1 1
40 1 1
41 1 1
42 1 1
43 1 1
44 1 1
45 1 1
46 1 1
47 1 1
48 1 1
49 1 1
0 2 1
1 2 1
2 2 1
3 2 1
4 2 1
5 2 1
6 2 1
7 2 1
8 2 1
9 2 1
10 2 1
11 2 1
12 2 1
13 2 1
14 2 1
15 2 1
16 2 1
17 2 1
18 2 1
19 2 1
20 2 1
21 2 1
22 2 1
23 2 1
24 2 1
25 2 1
26 2 1
27 2 1
28 2 1
29 2 1
30 2 1
31 2 1
32 2 1
33 2 1
34 2 1
35 2 1
36 2 1
37 2 1
38 2 1
39 2 1
40 2 1
41 2 1
42 2 1
43 2 1
44 2 1
45 2 1
46 2 1
47 2 1
48 2 1
49 2 1
0 3 1
1 3 1
2 3 1
3 3 1
4 3 1
5 3 1
6 3 1
7 3 1
8 3 1
9 3 1
10 3 1
11 3 1
12 3 1
13 3 1
14 3 1
15 3 1
16 3 1
17 3 1
18 3 1
19 3 1
20 3 1
21 3 1
22 3 1
23 3 1
24 3 1
25 3 1
26 3 1
27 3 1
28 3 1
29 3 1
30 3 1
31 3 1
32 3 1
33 3 1
34 3 1
35 3 1
36 3 1
37 3 1
38 3 1
39 3 1
40 3 1
41 3 1
42 3 1
43 3 1
44 3 1
45 3 1
46 3 1
47 3 1
48 3 1
49 3 1
0 4 1
1 4 1
2 4 1
3 4 1
4 4 1
5 4 1
6 4 1
7 4 1
8 4 1
9 4 1
10 4 1
11 4 1
12 4 1
13 4 1
14 4 1
15 4 1
16 4 1
17 4 1
18 4 1
19 4 1
20 4 1
21 4 1
22 4 1
23 4 1
24 4 1
25 4 1
26 4 1
27 4 1
28 4 1
29 4 1
30 4 1
31 4 1
32 4 1
33 4 1
34 4 1
35 4 1
36 4 1
37 4 1
38 4 1
39 4 1
40 4 1
41 4 1
42 4 1
43 4 1
44 4 1
45 4 1
46 4 1
47 4 1
48 4 1
49 4 1
0 5 1
1 5 1
2 5 1
3 5 1
4 5 1
5 5 1
6 5 1
7 5 1
8 5 1
9 5 1
10 5 1
11 5 1
12 5 1
13 5 1
14 5 1
15 5 1
16 5 1
17 5 1
18 5 1
19 5 1
20 5 1
21 5 1
22 5 1
23 5 1
24 5 1
25 5 1
26 5 1
27 5 1
28 5 1
29 5 1
30 5 1
31 5 1
32 5 1
33 5 1
34 5 1
35 5 1
36 5 1
37 5 1
38 5 1
39 5 1
40 5 1
41 5 1
42 5 1
43 5 1
44 5 1
45 5 1
46 5 1
47 5 1
48 5 1
49 5 1
0 6 1
1 6 1
2 6 1
3 6 1
4 6 1
5 6 1
6 6 1
7 6 1
8 6 1
9 6 1
10 6 1
11 6 1
12 6 1
13 6 1
14 6 1
15 6 1
16 6 1
17 6 1
18 6 1
19 6 1
20 6 1
21 6 1
22 6 1
23 6 1
24 6 1
25 6 1
26 6 1
27 6 1
28 6 1
29 6 1
30 6 1
31 6 1
32 6 1
33 6 1
34 6 1
35 6 1
36 6 1
37 6 1
38 6 1
39 6 1
40 6 1
41 6 1
42 6 1
43 6 1
44 6 1
45 6 1
46 6 1
47 6 1
48 6 1
49 6 1
0 7 1
1 7 1
2 7 1
3 7 1
4 7 1
5 7 1
6 7 1
7 7 1
8 7 1
9 7 1
10 7 1
11 7 1
12 7 1
13 7 1
14 7 1
15 7 1
16 7 1
17 7 1
18 7 1
19 7 1
20 7 1
21 7 1
22 7 1
23 7 1
24 7 1
25 7 1
26 7 1
27 7 1
28 7 1
29 7 1
30 7 1
31 7 1
32 7 1
33 7 1
34 7 1
35 7 1
36 7 1
37 7 1
38 7 1
39 7 1
40 7 1
41 7 1
42 7 1
43 7 1
44 7 1
45 7 1
46 7 1
47 7 1
48 7 1
49 7 1
0 8 1
1 8 1
2 8 1
3 8 1
4 8 1
5 8 1
6 8 1
7 8 1
8 8 1
9 8 1
10 8 1
11 8 1
12 8 1
13 8 1
14 8 1
15 8 1
16 8 1
17 8 1
18 8 1
19 8 1
20 8 1
21 8 1
22 8 1
23 8 1
24 8 1
25 8 1
26 8 1
27 8 1
28 8 1
29 8 1
30 8 1
31 8 1
32 8 1
33 8 1
34 8 1
35 8 1
36 8 1
37 8 1
38 8 1
39 8 1
40 8 1
41 8 1
42 8 1
43 8 1
44 8 1
45 8 1
46 8 1
47 8 1
48 8 1
49 8 1
0 9 1
1 9 1
2 9 1
3 9 1
4 9 1
5 9 1
6 9 1
7 9 1
8 9 1
9 9 1
10 9 1
11 9 1
12 9 1
13 9 1
14 9 1
15 9 1
16 9 1
17 9 1
18 9 1
19 9 1
20 9 1
21 9 1
22 9 1
23 9 1
24 9 1
25 9 1
26 9 1
27 9 1
28 9 1
29 9 1
30 9 1
31 9 1
32 9 1
33 9 1
34 9 1
35 9 1
36 9 1
37 9 1
38 9 1
39 9 1
40 9 1
41 9 1
42 9 1
43 9 1
44 9 1
45 9 1
46 9 1
47 9 1
48 9 1
49 9 1
0 0 2
1 0 2
2 0 2
3 0 2
4 0 2
5 0 2
6 0 2
7 0 2
8 0 2
9 0 2
10 0 2
11 0 2
12 0 2
13 0 2
14 0 2
15 0 2
16 0 2
17 0 2
18 0 2
19 0 2
20 0 2
21 0 2
22 0 2
23 0 2
24 0 2
25 0 2
26 0 2
27 0 2
28 0 2
29 0 2
30 0 2
31 0 2
32 0 2
33 0 2
34 0 2
35 0 2
36 0 2
37 0 2
38 0 2
39 0 2
40 0 2
41 0 2
42 0 2
43 0 2
44 0 2
45 0 2
46 0 2
47 0 2
48 0 2
49 0 2
0 1 2
1 1 2
2 1 2
3 1 2
4 1 2
5 1 2
6 1 2
7 1 2
8 1 2
9 1 2
10 1 2
11 1 2
12 1 2
13 1 2
14 1 2
15 1 2
16 1 2
17 1 2
18 1 2
19 1 2
20 1 2
21 1 2
22 1 2
23 1 2
24 1 2
25 1 2
26 1 2
27 1 2
28 1 2
29 1 2
30 1 2
31 1 2
32 1 2
33 1 2
34 1 2
35 1 2
36 1 2
37 1 2
38 1 2
39 1 2
40 1 2
41 1 2
42 1 2
43 1 2
44 1 2
45 1 2
46 1 2
47 1 2
48 1 2
49 1 2
0 2 2
1 2 2
2 2 2
3 2 2
4 2 2
5 2 2
6 2 2
7 2 2
8 2 2
9 2 2
10 2 2
11 2 2
12 2 2
13 2 2
14 2 2
15 2 2
16 2 2
17 2 2
18 2 2
19 2 2
20 2 2
21 2 2
22 2 2
23 2 2
24 2 2
25 2 2
26 2 2
27 2 2
28 2 2
29 2 2
30 2 2
31 2 2
32 2 2
33 2 2
34 2 2
35 2 2
36 2 2
37 2 2
38 2 2
39 2 2
40 2 2
41 2 2
42 2 2
43 2 2
44 2 2
45 2 2
46 2 2
47 2 2
48 2 2
49 2 2
0 3 2
1 3 2
2 3 2
3 3 2
4 3 2
5 3 2
6 3 2
7 3 2
8 3 2
9 3 2
10 3 2
11 3 2
12 3 2
13 3 2
14 3 2
15 3 2
16 3 2
17 3 2
18 3 2
19 3 2
20 3 2
21 3 2
22 3 2
23 3 2
24 3 2
25 3 2
26 3 2
27 3 2
28 3 2
29 3 2
30 3 2
31 3 2
32 3 2
33 3 2
34 3 2
35 3 2
36 3 2
37 3 2
38 3 2
39 3 2
40 3 2
41 3 2
42 3 2
43 3 2
44 3 2
45 3 2
46 3 2
47 3 2
48 3 2
49 3 2
0 4 2
1 4 2
2 4 2
3 4 2
4 4 2
5 4 2
6 4 2
7 4 2
8 4 2
9 4 2
10 4 2
11 4 2
12 4 2
13 4 2
14 4 2
15 4 2
16 4 2
17 4 2
18 4 2
19 4 2
20 4 2
21 4 2
22 4 2
23 4 2
24 4 2
25 4 2
26 4 2
27 4 2
28 4 2
29 4 2
30 4 2
31 4 2
32 4 2
33 4 2
34 4 2
35 4 2
36 4 2
37 4 2
38 4 2
39 4 2
40 4 2
41 4 2
42 4 2
43 4 2
44 4 2
45 4 2
46 4 2
47 4 2
48 4 2
49 4 2
0 5 2
1 5 2
2 5 2
3 5 2
4 5 2
5 5 2
6 5 2
7 5 2
8 5 2
9 5 2
10 5 2
11 5 2
12 5 2
13 5 2
14 5 2
15 5 2
16 5 2
17 5 2
18 5 2
19 5 2
20 5 2
21 5 2
22 5 2
23 5 2
24 5 2
25 5 2
26 5 2
27 5 2
28 5 2
29 5 2
30 5 2
31 5 2
32 5 2
33 5 2
34 5 2
35 5 2
36 5 2
37 5 2
38 5 2
39 5 2
40 5 2
41 5 2
42 5 2
43 5 2
44 5 2
45 5 2
46 5 2
47 5 2
48 5 2
49 5 2
0 6 2
1 6 2
2 6 2
3 6 2
4 6 2
5 6 2
6 6 2
7 6 2
8 6 2
9 6 2
10 6 2
11 6 2
12 6 2
13 6 2
14 6 2
15 6 2
16 6 2
17 6 2
18 6 2
19 6 2
20 6 2
21 6 2
22 6 2
23 6 2
24 6 2
25 6 2
26 6 2
27 6 2
28 6 2
29 6 2
30 6 2
31 6 2
32 6 2
33 6 2
34 6 2
35 6 2
36 6 2
37 6 2
38 6 2
39 6 2
40 6 2
41 6 2
42 6 2
43 6 2
44 6 2
45 6 2
46 6 2
47 6 2
48 6 2
49 6 2
0 7 2
1 7 2
2 7 2
3 7 2
4 7 2
5 7 2
6 7 2
7 7 2
8 7 2
9 7 2
10 7 2
11 7 2
12 7 2
13 7 2
14 7 2
15 7 2
16 7 2
17 7 2
18 7 2
19 7 2
20 7 2
21 7 2
22 7 2
23 7 2
24 7 2
25 7 2
26 7 2
27 7 2
28 7 2
29 7 2
30 7 2
31 7 2
32 7 2
33 7 2
34 7 2
35 7 2
36 7 2
37 7 2
38 7 2
39 7 2
40 7 2
41 7 2
42 7 2
43 7 2
44 7 2
45 7 2
46 7 2
47 7 2
48 7 2
49 7 2
0 8 2
1 8 2
2 8 2
3 8 2
4 8 2
5 8 2
6 8 2
7 8 2
8 8 2
9 8 2
10 8 2
11 8 2
12 8 2
13 8 2
14 8 2
15 8 2
16 8 2
17 8 2
18 8 2
19 8 2
20 8 2
21 8 2
22 8 2
23 8 2
24 8 2
25 8 2
26 8 2
27 8 2
28 8 2
29 8 2
30 8 2
31 8 2
32 8 2
33 8 2
34 8 2
35 8 2
36 8 2
37 8 2
38 8 2
39 8 2
40 8 2
41 8 2
42 8 2
43 8 2
44 8 2
45 8 2
46 8 2
47 8 2
48 8 2
49 8 2
0 9 2
1 9 2
2 9 2
3 9 2
4 9 2
[...]
POINT_DATA 15000
SCALARS sol36 float
LOOKUP_TABLE default
44.8873
44.8842
44.8812
44.8781
44.8751
44.872
44.869
44.8659
44.8629
44.8598
44.8568
44.8537
44.8507
44.8477
44.8446
44.8416
44.8385
44.8355
44.8324
44.8294
44.8264
44.8233
44.8203
44.8172
44.8142
44.8112
44.8081
44.8051
44.802
44.799
44.796
44.7929
44.7899
44.7869
44.7838
44.7808
44.7778
44.7747
44.7717
44.7687
44.7656
44.7626
44.7596
44.7565
44.7535
44.7505
44.7474
44.7444
44.7414
44.7383
44.7353
44.7323
44.7293
44.7262
44.7232
44.7202
44.7172
44.7141
44.7111
44.7081
44.705
44.702
44.699
44.696
44.693
44.6899
44.6869
44.6839
44.6809
44.6778
44.6748
44.6718
44.6688
44.6658
44.6627
44.6597
44.6567
44.6537
44.6507
44.6477
44.6446
44.6416
44.6386
44.6356
44.6326
44.6296
44.6265
44.6235
44.6205
44.6175
44.6145
44.6115
44.6085
44.6055
44.6024
44.5994
44.5964
44.5934
44.5904
44.5874
44.5844
44.5814
44.5784
44.5754
44.5724
44.5693
44.5663
44.5633
44.5603
44.5573
44.5543
44.5513
44.5483
44.5453
44.5423
44.5393
44.5363
44.5333
44.5303
44.5273
44.5243
44.5213
44.5183
44.5153
44.5123
44.5093
44.5063
44.5033
44.5003
44.4973
44.4943
44.4913
44.4883
44.4853
44.4823
44.4793
44.4763
44.4733
44.4703
44.4674
44.4644
44.4614
44.4584
44.4554
44.4524
44.4494
44.4464
44.4434
44.4404
44.4374
44.4345
44.4315
44.4285
44.4255
44.4225
44.4195
44.4165
44.4135
44.4106
44.4076
44.4046
44.4016
44.3986
44.3956
44.3927
44.3897
44.3867
44.3837
44.3807
44.3777
44.3748
44.3718
44.3688
44.3658
44.3628
44.3599
44.3569
44.3539
44.3509
44.348
44.345
44.342
44.339
44.3361
44.3331
44.3301
44.3271
44.3242
44.3212
44.3182
44.3152
44.3123
44.3093
44.3063
44.3033
44.3004
44.2974
44.2944
44.2915
44.2885
44.2855
44.2826
44.2796
44.2766
44.2737
44.2707
44.2677
44.2648
44.2618
44.2588
44.2559
44.2529
44.2499
44.247
44.244
44.241
44.2381
44.2351
44.2322
44.2292
44.2262
44.2233
44.2203
44.2174
44.2144
44.2114
44.2085
44.2055
44.2026
44.1996
44.1967
44.1937
44.1907
44.1878
44.1848
44.1819
44.1789
44.176
44.173
44.1701
44.1671
44.1642
44.1612
44.1583
44.1553
44.1524
44.1494
44.1465
44.1435
44.1406
44.1376
44.1347
44.1317
44.1288
44.1258
44.1229
44.1199
44.117
44.114
44.1111
44.1081
44.1052
44.1023
44.0993
44.0964
44.0934
44.0905
44.0875
44.0846
44.0817
44.0787
44.0758
44.0728
44.0699
44.067
44.064
44.0611
44.0581
44.0552
44.0523
44.0493
44.0464
44.0435
44.0405
44.0376
44.0346
44.0317
44.0288
44.0258
44.0229
44.02
44.017
44.0141
44.0112
44.0083
44.0053
44.0024
43.9995
43.9965
43.9936
43.9907
43.9877
43.9848
43.9819
43.979
43.976
43.9731
43.9702
43.9673
43.9643
43.9614
43.9585
43.9556
43.9526
43.9497
43.9468
43.9439
43.9409
43.938
43.9351
43.9322
43.9293
43.9263
43.9234
43.9205
43.9176
43.9147
43.9117
43.9088
43.9059
43.903
43.9001
43.8972
43.8942
43.8913
43.8884
43.8855
43.8826
43.8797
43.8768
43.8738
43.8709
43.868
43.8651
43.8622
43.8593
43.8564
43.8535
43.8505
43.8476
43.8447
43.8418
43.8389
43.836
43.8331
43.8302
43.8273
43.8244
43.8215
43.8186
43.8157
43.8128
43.8099
43.8069
43.804
43.8011
43.7982
43.7953
43.7924
43.7895
43.7866
43.7837
43.7808
43.7779
43.775
43.7721
43.7692
43.7663
43.7634
43.7605
43.7576
43.7547
43.7518
43.7489
43.7461
43.7432
43.7403
43.7374
43.7345
43.7316
43.7287
43.7258
43.7229
43.72
43.7171
43.7142
43.7113
43.7084
43.7056
43.7027
43.6998
43.6969
43.694
43.6911
43.6882
43.6853
43.6824
43.6796
43.6767
43.6738
43.6709
43.668
43.6651
43.6622
43.6594
43.6565
43.6536
43.6507
43.6478
43.645
43.6421
43.6392
43.6363
43.6334
43.6305
43.6277
43.6248
43.6219
43.619
43.6162
43.6133
43.6104
43.6075
43.6046
43.6018
43.5989
43.596
43.5931
43.5903
43.5874
43.5845
43.5816
43.5788
43.5759
43.573
43.5702
43.5673
43.5644
43.5615
43.5587
43.5558
43.5529
43.5501
43.5472
43.5443
43.5415
43.5386
43.5357
43.5329
43.53
43.5271
43.5243
43.5214
43.5185
43.5157
43.5128
43.5099
43.5071
43.5042
43.5013
43.4985
43.4956
43.4928
43.4899
43.487
43.4842
43.4813
43.4785
43.4756
43.4727
43.4699
43.467
43.4642
43.4613
43.4585
43.4556
43.4527
43.4499
43.447
43.4442
43.4413
43.4385
43.4356
43.4328
43.4299
43.4271
43.4242
43.4214
43.4185
43.4157
43.4128
43.41
43.4071
43.4043
43.4014
43.3986
43.3957
43.3929
43.39
43.3872
43.3843
43.3815
43.3786
43.3758
43.3729
43.3701
43.3673
43.3644
43.3616
43.3587
43.3559
43.353
43.3502
43.3474
43.3445
43.3417
43.3388
43.336
43.3332
43.3303
43.3275
43.3246
43.3218
43.319
43.3161
43.3133
43.3105
43.3076
43.3048
43.302
43.2991
43.2963
43.2934
43.2906
43.2878
43.2849
43.2821
43.2793
43.2765
43.2736
43.2708
43.268
43.2651
43.2623
43.2595
43.2566
43.2538
43.251
43.2482
43.2453
43.2425
43.2397
43.2369
43.234
43.2312
43.2284
43.2255
43.2227
43.2199
43.2171
43.2143
43.2114
43.2086
43.2058
43.203
43.2001
43.1973
43.1945
43.1917
43.1889
43.186
43.1832
43.1804
43.1776
43.1748
43.172
43.1691
43.1663
43.1635
43.1607
43.1579
43.1551
43.1522
43.1494
43.1466
43.1438
43.141
43.1382
43.1354
43.1326
43.1297
43.1269
43.1241
43.1213
43.1185
43.1157
43.1129
43.1101
43.1073
43.1045
43.1016
43.0988
43.096
43.0932
43.0904
43.0876
43.0848
43.082
43.0792
43.0764
43.0736
43.0708
43.068
43.0652
43.0624
43.0596
43.0568
43.054
43.0512
43.0484
43.0456
43.0428
43.04
43.0372
43.0344
43.0316
43.0288
43.026
43.0232
43.0204
43.0176
43.0148
43.012
43.0092
43.0064
43.0036
43.0008
42.998
42.9952
42.9925
42.9897
42.9869
42.9841
42.9813
42.9785
42.9757
42.9729
42.9701
42.9673
42.9646
42.9618
42.959
42.9562
42.9534
42.9506
42.9478
42.945
42.9423
42.9395
42.9367
42.9339
42.9311
42.9283
42.9256
42.9228
42.92
42.9172
42.9144
42.9116
42.9089
42.9061
42.9033
42.9005
42.8977
42.895
42.8922
42.8894
42.8866
42.8838
42.8811
42.8783
42.8755
42.8727
42.87
42.8672
42.8644
42.8616
42.8589
42.8561
42.8533
42.8505
42.8478
42.845
42.8422
42.8395
42.8367
42.8339
42.8311
42.8284
42.8256
42.8228
42.8201
42.8173
42.8145
42.8118
42.809
42.8062
42.8035
42.8007
42.7979
42.7952
42.7924
42.7896
42.7869
42.7841
42.7814
42.7786
42.7758
42.7731
42.7703
42.7675
42.7648
42.762
42.7593
42.7565
42.7537
42.751
42.7482
42.7455
42.7427
42.7399
42.7372
42.7344
42.7317
42.7289
42.7262
42.7234
42.7207
42.7179
42.7151
42.7124
42.7096
42.7069
42.7041
42.7014
42.6986
42.6959
42.6931
42.6904
42.6876
42.6849
42.6821
42.6794
42.6766
42.6739
42.6711
42.6684
42.6656
42.6629
42.6601
42.6574
42.6547
42.6519
42.6492
42.6464
42.6437
42.6409
42.6382
42.6354
42.6327
42.63
42.6272
42.6245
42.6217
42.619
42.6163
42.6135
42.6108
42.608
42.6053
42.6026
42.5998
42.5971
42.5943
42.5916
42.5889
42.5861
42.5834
42.5807
42.5779
42.5752
42.5725
42.5697
42.567
42.5643
42.5615
42.5588
42.5561
42.5533
42.5506
42.5479
42.5451
42.5424
42.5397
42.5369
42.5342
42.5315
42.5288
42.526
42.5233
42.5206
42.5179
42.5151
42.5124
42.5097
42.507
42.5042
42.5015
42.4988
42.4961
42.4933
42.4906
42.4879
42.4852
42.4824
42.4797
42.477
42.4743
42.4716
42.4688
42.4661
42.4634
42.4607
42.458
42.4552
42.4525
42.4498
42.4471
42.4444
42.4417
42.4389
42.4362
42.4335
42.4308
42.4281
42.4254
42.4227
42.4199
42.4172
42.4145
42.4118
42.4091
42.4064
42.4037
42.401
42.3983
42.3956
42.3928
42.3901
42.3874
42.3847
42.382
42.3793
42.3766
42.3739
42.3712
42.3685
42.3658
42.3631
42.3604
42.3577
42.355
42.3522
42.3495
42.3468
42.3441
42.3414
42.3387
42.336
42.3333
42.3306
42.3279
42.3252
42.3225
42.3198
42.3171
42.3144
42.3117
42.309
42.3063
42.3037
42.301
42.2983
42.2956
42.2929
42.2902
42.2875
42.2848
42.2821
42.2794
42.2767
42.274
42.2713
42.2686
42.2659
42.2632
42.2606
42.2579
42.2552
42.2525
42.2498
42.2471
42.2444
42.2417
42.239
42.2364
42.2337
42.231
42.2283
42.2256
42.2229
42.2202
42.2176
42.2149
42.2122
42.2095
42.2068
42.2041
42.2015
42.1988
42.1961
42.1934
42.1907
42.1881
42.1854
42.1827
42.18
42.1773
42.1747
42.172
42.1693
42.1666
42.1639
42.1613
42.1586
42.1559
42.1532
42.1506
42.1479
42.1452
42.1425
42.1399
42.1372
42.1345
42.1319
42.1292
42.1265
42.1238
42.1212
42.1185
42.1158
42.1132
42.1105
42.1078
42.1051
42.1025
42.0998
42.0971
42.0945
42.0918
42.0891
42.0865
42.0838
42.0811
42.0785
42.0758
42.0732
42.0705
42.0678
42.0652
42.0625
42.0598
42.0572
42.0545
42.0519
42.0492
42.0465
42.0439
42.0412
42.0386
42.0359
42.0332
42.0306
42.0279
42.0253
42.0226
42.0199
42.0173
42.0146
42.012
42.0093
42.0067
42.004
42.0014
41.9987
41.9961
41.9934
41.9907
41.9881
41.9854
41.9828
41.9801
41.9775
41.9748
41.9722
41.9695
41.9669
41.9642
41.9616
41.9589
41.9563
41.9537
41.951
41.9484
41.9457
41.9431
41.9404
41.9378
41.9351
41.9325
41.9298
41.9272
41.9246
41.9219
41.9193
41.9166
41.914
41.9113
41.9087
41.9061
41.9034
41.9008
41.8981
41.8955
41.8929
41.8902
41.8876
41.885
41.8823
41.8797
41.877
41.8744
41.8718
41.8691
41.8665
41.8639
41.8612
41.8586
41.856
41.8533
41.8507
41.8481
41.8454
41.8428
41.8402
41.8375
41.8349
41.8323
41.8297
41.827
41.8244
41.8218
41.8191
41.8165
41.8139
41.8113
41.8086
41.806
41.8034
41.8007
41.7981
41.7955
41.7929
41.7902
41.7876
41.785
41.7824
41.7798
41.7771
41.7745
41.7719
41.7693
41.7666
41.764
41.7614
41.7588
41.7562
41.7536
41.7509
41.7483
41.7457
41.7431
41.7405
41.7378
41.7352
41.7326
41.73
41.7274
41.7248
41.7222
41.7195
41.7169
41.7143
41.7117
41.7091
41.7065
41.7039
41.7013
41.6986
41.696
41.6934
41.6908
41.6882
41.6856
41.683
41.6804
41.6778
41.6752
41.6725
41.6699
41.6673
41.6647
41.6621
41.6595
41.6569
41.6543
41.6517
41.6491
41.6465
41.6439
41.6413
41.6387
41.6361
41.6335
41.6309
41.6283
41.6257
41.6231
41.6205
41.6179
41.6153
41.6127
41.6101
41.6075
41.6049
41.6023
41.5997
41.5971
41.5945
41.5919
41.5893
41.5867
41.5841
41.5815
41.5789
41.5763
41.5737
41.5712
41.5686
41.566
41.5634
41.5608
41.5582
41.5556
41.553
41.5504
41.5478
41.5452
41.5427
41.5401
41.5375
41.5349
41.5323
41.5297
41.5271
41.5245
41.522
41.5194
41.5168
41.5142
41.5116
41.509
41.5064
41.5039
41.5013
41.4987
41.4961
41.4935
41.491
41.4884
41.4858
41.4832
41.4806
41.4781
41.4755
41.4729
41.4703
41.4677
41.4652
41.4626
41.46
41.4574
41.4549
41.4523
41.4497
41.4471
41.4446
41.442
41.4394
41.4368
41.4343
41.4317
41.4291
41.4265
41.424
41.4214
41.4188
41.4163
41.4137
41.4111
41.4085
41.406
41.4034
41.4008
41.3983
41.3957
41.3931
41.3906
41.388
41.3854
41.3829
41.3803
41.3777
41.3752
41.3726
41.37
41.3675
41.3649
41.3624
41.3598
41.3572
41.3547
41.3521
41.3495
41.347
41.3444
41.3419
41.3393
41.3367
41.3342
41.3316
41.3291
41.3265
41.324
41.3214
41.3188
41.3163
41.3137
41.3112
41.3086
41.3061
41.3035
41.301
41.2984
41.2958
41.2933
41.2907
41.2882
41.2856
41.2831
41.2805
41.278
41.2754
41.2729
41.2703
41.2678
41.2652
41.2627
41.2601
41.2576
41.255
41.2525
41.2499
41.2474
41.2449
41.2423
41.2398
41.2372
41.2347
41.2321
41.2296
41.227
41.2245
41.222
41.2194
41.2169
41.2143
41.2118
41.2092
41.2067
41.2042
41.2016
41.1991
41.1965
41.194
41.1915
41.1889
41.1864
41.1839
41.1813
41.1788
41.1762
41.1737
41.1712
41.1686
41.1661
41.1636
41.161
41.1585
41.156
41.1534
41.1509
41.1484
41.1458
41.1433
41.1408
41.1383
41.1357
41.1332
41.1307
41.1281
41.1256
41.1231
41.1205
41.118
41.1155
41.113
41.1104
41.1079
41.1054
41.1029
41.1003
41.0978
41.0953
41.0928
41.0902
41.0877
41.0852
41.0827
41.0801
41.0776
41.0751
41.0726
41.0701
41.0675
41.065
41.0625
41.06
41.0575
41.0549
41.0524
41.0499
41.0474
41.0449
41.0424
41.0398
41.0373
41.0348
41.0323
41.0298
41.0273
41.0248
41.0222
41.0197
41.0172
41.0147
41.0122
41.0097
41.0072
41.0046
41.0021
40.9996
40.9971
40.9946
40.9921
40.9896
40.9871
40.9846
40.9821
40.9796
40.977
40.9745
40.972
40.9695
40.967
40.9645
40.962
40.9595
40.957
40.9545
40.952
40.9495
40.947
40.9445
40.942
40.9395
40.937
40.9345
40.932
40.9295
40.927
40.9245
40.922
40.9195
40.917
40.9145
40.912
40.9095
40.907
40.9045
40.902
40.8995
40.897
40.8945
40.892
40.8895
40.887
40.8845
40.882
40.8795
40.8771
40.8746
40.8721
40.8696
40.8671
40.8646
40.8621
40.8596
40.8571
40.8546
40.8521
40.8497
40.8472
40.8447
40.8422
40.8397
40.8372
40.8347
40.8322
40.8298
40.8273
40.8248
40.8223
40.8198
40.8173
40.8149
40.8124
40.8099
40.8074
40.8049
40.8024
40.8
40.7975
40.795
40.7925
40.79
40.7876
40.7851
40.7826
40.7801
40.7776
40.7752
40.7727
40.7702
40.7677
40.7653
40.7628
40.7603
40.7578
40.7554
40.7529
40.7504
40.7479
40.7455
40.743
40.7405
40.738
40.7356
40.7331
40.7306
40.7282
40.7257
40.7232
40.7207
40.7183
40.7158
40.7133
40.7109
40.7084
40.7059
40.7035
40.701
40.6985
40.6961
40.6936
40.6911
40.6887
40.6862
40.6837
40.6813
40.6788
40.6763
40.6739
40.6714
40.669
40.6665
40.664
40.6616
40.6591
40.6567
40.6542
40.6517
40.6493
40.6468
40.6444
40.6419
40.6394
40.637
40.6345
40.6321
40.6296
40.6272
40.6247
40.6222
40.6198
40.6173
40.6149
40.6124
40.61
40.6075
40.6051
40.6026
40.6002
40.5977
40.5953
40.5928
40.5904
40.5879
40.5855
40.583
40.5806
40.5781
40.5757
40.5732
40.5708
40.5683
40.5659
40.5634
40.561
40.5585
40.5561
40.5536
40.5512
40.5488
40.5463
40.5439
40.5414
40.539
40.5365
40.5341
40.5316
40.5292
40.5268
40.5243
40.5219
40.5194
40.517
40.5146
40.5121
40.5097
40.5072
40.5048
40.5024
40.4999
40.4975
40.4951
40.4926
40.4902
40.4878
40.4853
40.4829
40.4804
40.478
40.4756
40.4731
40.4707
40.4683
40.4658
40.4634
40.461
40.4586
40.4561
40.4537
40.4513
40.4488
40.4464
40.444
40.4415
40.4391
40.4367
40.4343
40.4318
40.4294
40.427
40.4246
40.4221
40.4197
40.4173
40.4148
40.4124
40.41
40.4076
40.4052
40.4027
40.4003
40.3979
40.3955
40.393
40.3906
40.3882
40.3858
40.3834
40.3809
40.3785
40.3761
40.3737
40.3713
40.3688
40.3664
40.364
40.3616
40.3592
40.3568
40.3543
40.3519
40.3495
40.3471
40.3447
40.3423
40.3399
40.3374
40.335
40.3326
40.3302
40.3278
40.3254
40.323
40.3206
40.3181
40.3157
40.3133
40.3109
40.3085
40.3061
40.3037
40.3013
40.2989
40.2965
40.2941
40.2917
40.2892
40.2868
40.2844
40.282
40.2796
40.2772
40.2748
40.2724
40.27
40.2676
40.2652
40.2628
40.2604
40.258
40.2556
40.2532
40.2508
40.2484
40.246
40.2436
40.2412
40.2388
40.2364
40.234
40.2316
40.2292
40.2268
40.2244
40.222
40.2196
40.2172
40.2148
40.2124
40.21
40.2076
40.2053
40.2029
40.2005
40.1981
40.1957
40.1933
40.1909
40.1885
40.1861
40.1837
40.1813
40.1789
40.1766
40.1742
40.1718
40.1694
40.167
40.1646
40.1622
40.1598
40.1575
40.1551
40.1527
40.1503
40.1479
40.1455
40.1431
40.1408
40.1384
40.136
40.1336
40.1312
40.1288
40.1265
40.1241
40.1217
40.1193
40.1169
40.1146
40.1122
40.1098
40.1074
40.105
40.1027
40.1003
40.0979
40.0955
40.0931
40.0908
40.0884
40.086
40.0836
40.0813
40.0789
40.0765
40.0741
40.0718
40.0694
40.067
40.0646
40.0623
40.0599
40.0575
40.0552
40.0528
40.0504
40.048
40.0457
40.0433
40.0409
40.0386
40.0362
40.0338
40.0315
40.0291
40.0267
40.0244
40.022
40.0196
40.0173
40.0149
40.0125
40.0102
40.0078
40.0054
40.0031
40.0007
39.9984
39.996
39.9936
39.9913
39.9889
39.9865
39.9842
39.9818
39.9795
39.9771
39.9747
39.9724
39.97
39.9677
39.9653
39.963
39.9606
39.9582
39.9559
39.9535
39.9512
39.9488
39.9465
39.9441
39.9417
39.9394
39.937
39.9347
39.9323
39.93
39.9276
39.9253
39.9229
39.9206
39.9182
39.9159
39.9135
39.9112
39.9088
39.9065
39.9041
39.9018
39.8994
39.8971
39.8947
39.8924
39.89
39.8877
39.8853
39.883
39.8807
39.8783
39.876
39.8736
39.8713
39.8689
39.8666
39.8643
39.8619
39.8596
39.8572
39.8549
39.8525
39.8502
39.8479
39.8455
39.8432
39.8408
39.8385
39.8362
39.8338
39.8315
39.8292
39.8268
39.8245
39.8221
39.8198
39.8175
39.8151
39.8128
39.8105
39.8081
39.8058
39.8035
39.8011
39.7988
39.7965
39.7941
39.7918
39.7895
39.7871
39.7848
39.7825
39.7801
39.7778
39.7755
39.7732
39.7708
39.7685
39.7662
39.7638
39.7615
39.7592
39.7569
39.7545
39.7522
39.7499
39.7476
39.7452
39.7429
39.7406
39.7383
39.7359
39.7336
39.7313
39.729
39.7267
39.7243
39.722
39.7197
39.7174
39.715
39.7127
39.7104
39.7081
39.7058
39.7034
39.7011
39.6988
39.6965
39.6942
39.6919
39.6895
39.6872
39.6849
39.6826
39.6803
39.678
39.6757
39.6733
39.671
39.6687
39.6664
39.6641
39.6618
39.6595
39.6572
39.6548
39.6525
39.6502
39.6479
39.6456
39.6433
39.641
39.6387
39.6364
39.6341
39.6318
39.6294
39.6271
39.6248
39.6225
39.6202
39.6179
39.6156
39.6133
39.611
39.6087
39.6064
39.6041
39.6018
39.5995
39.5972
39.5949
39.5926
39.5903
39.588
39.5857
39.5834
39.5811
39.5788
39.5765
39.5742
39.5719
39.5696
39.5673
39.565
39.5627
39.5604
39.5581
39.5558
39.5535
39.5512
39.5489
39.5466
39.5443
39.542
39.5397
39.5374
39.5351
39.5329
39.5306
39.5283
39.526
39.5237
39.5214
39.5191
39.5168
39.5145
39.5122
39.5099
39.5077
39.5054
39.5031
39.5008
39.4985
39.4962
39.4939
39.4916
39.4894
39.4871
39.4848
39.4825
39.4802
39.4779
39.4757
39.4734
39.4711
39.4688
39.4665
39.4642
39.462
39.4597
39.4574
39.4551
39.4528
39.4506
39.4483
39.446
39.4437
39.4414
39.4392
39.4369
39.4346
39.4323
39.43
39.4278
39.4255
39.4232
39.4209
39.4187
39.4164
39.4141
39.4118
39.4096
39.4073
39.405
39.4028
39.4005
39.3982
39.3959
39.3937
39.3914
39.3891
39.3869
39.3846
39.3823
39.38
39.3778
39.3755
39.3732
39.371
39.3687
39.3664
39.3642
39.3619
39.3596
39.3574
39.3551
39.3528
39.3506
39.3483
39.346
39.3438
39.3415
39.3393
39.337
39.3347
39.3325
39.3302
39.3279
39.3257
39.3234
39.3212
39.3189
39.3166
39.3144
39.3121
39.3099
39.3076
39.3054
39.3031
39.3008
39.2986
39.2963
39.2941
39.2918
39.2896
39.2873
39.285
39.2828
39.2805
39.2783
39.276
39.2738
39.2715
39.2693
39.267
39.2648
39.2625
39.2603
39.258
39.2558
39.2535
39.2513
39.249
39.2468
39.2445
39.2423
39.24
39.2378
39.2355
39.2333
39.231
39.2288
39.2265
39.2243
39.2221
39.2198
39.2176
39.2153
39.2131
39.2108
39.2086
39.2064
39.2041
39.2019
39.1996
39.1974
39.1951
39.1929
39.1907
39.1884
39.1862
39.1839
39.1817
39.1795
39.1772
39.175
39.1728
39.1705
39.1683
39.166
39.1638
39.1616
39.1593
39.1571
39.1549
39.1526
39.1504
39.1482
39.1459
39.1437
39.1415
39.1392
39.137
39.1348
39.1325
39.1303
39.1281
39.1258
39.1236
39.1214
39.1192
39.1169
39.1147
39.1125
39.1102
39.108
39.1058
39.1036
39.1013
39.0991
39.0969
39.0947
39.0924
39.0902
39.088
39.0858
39.0835
39.0813
39.0791
39.0769
39.0747
39.0724
39.0702
39.068
39.0658
39.0635
39.0613
39.0591
39.0569
39.0547
39.0524
39.0502
39.048
39.0458
39.0436
39.0414
39.0391
39.0369
39.0347
39.0325
39.0303
39.0281
39.0258
39.0236
39.0214
39.0192
39.017
39.0148
39.0126
39.0104
39.0081
39.0059
39.0037
39.0015
38.9993
38.9971
38.9949
38.9927
38.9905
38.9883
38.986
38.9838
38.9816
38.9794
38.9772
38.975
38.9728
38.9706
38.9684
38.9662
38.964
38.9618
38.9596
38.9574
38.9552
38.953
38.9508
38.9486
38.9463
38.9441
38.9419
38.9397
38.9375
38.9353
38.9331
38.9309
38.9287
38.9265
38.9243
38.9221
38.9199
38.9178
38.9156
38.9134
38.9112
38.909
38.9068
38.9046
38.9024
38.9002
38.898
38.8958
38.8936
38.8914
38.8892
38.887
38.8848
38.8826
38.8804
38.8782
38.8761
38.8739
38.8717
38.8695
38.8673
38.8651
38.8629
38.8607
38.8585
38.8564
38.8542
38.852
38.8498
38.8476
38.8454
38.8432
38.841
38.8389
38.8367
38.8345
38.8323
38.8301
38.8279
38.8258
38.8236
38.8214
38.8192
38.817
38.8148
38.8127
38.8105
38.8083
38.8061
38.8039
38.8018
38.7996
38.7974
38.7952
38.793
38.7909
38.7887
38.7865
38.7843
38.7822
38.78
38.7778
38.7756
38.7734
38.7713
38.7691
38.7669
38.7648
38.7626
38.7604
38.7582
38.7561
38.7539
38.7517
38.7495
38.7474
38.7452
38.743
38.7409
38.7387
38.7365
38.7344
38.7322
38.73
38.7278
38.7257
38.7235
38.7213
38.7192
38.717
38.7148
38.7127
38.7105
38.7084
38.7062
38.704
38.7019
38.6997
38.6975
38.6954
38.6932
38.691
38.6889
38.6867
38.6846
38.6824
38.6802
38.6781
38.6759
38.6738
38.6716
38.6694
38.6673
38.6651
38.663
38.6608
38.6586
38.6565
38.6543
38.6522
38.65
38.6479
38.6457
38.6436
38.6414
38.6392
38.6371
38.6349
38.6328
38.6306
38.6285
38.6263
38.6242
38.622
38.6199
38.6177
38.6156
38.6134
38.6113
38.6091
38.607
38.6048
38.6027
38.6005
38.5984
38.5962
38.5941
38.5919
38.5898
38.5876
38.5855
38.5834
38.5812
38.5791
38.5769
38.5748
38.5726
38.5705
38.5684
38.5662
38.5641
38.5619
38.5598
38.5576
38.5555
38.5534
38.5512
38.5491
38.5469
38.5448
38.5427
38.5405
38.5384
38.5362
38.5341
38.532
38.5298
38.5277
38.5256
38.5234
38.5213
38.5192
38.517
38.5149
38.5128
38.5106
38.5085
38.5064
38.5042
38.5021
38.5
38.4978
38.4957
38.4936
38.4914
38.4893
38.4872
38.485
38.4829
38.4808
38.4787
38.4765
38.4744
38.4723
38.4701
38.468
38.4659
38.4638
38.4616
38.4595
38.4574
38.4553
38.4531
38.451
38.4489
38.4468
38.4446
38.4425
38.4404
38.4383
38.4361
38.434
38.4319
38.4298
38.4277
38.4255
38.4234
38.4213
38.4192
38.4171
38.4149
38.4128
38.4107
38.4086
38.4065
38.4044
38.4022
38.4001
38.398
38.3959