# vtk DataFile Version 2.0
vtk output
ASCII
DATASET STRUCTURED_GRID
DIMENSIONS 50 10 30
POINTS 15000 float
0 0 0
1 0 0
2 0 0
3 0 0
4 0 0
5 0 0
6 0 0
7 0 0
8 0 0
9 0 0
10 0 0
11 0 0
12 0 0
13 0 0
14 0 0
15 0 0
16 0 0
17 0 0
18 0 0
19 0 0
20 0 0
21 0 0
22 0 0
23 0 0
24 0 0
25 0 0
26 0 0
27 0 0
28 0 0
29 0 0
30 0 0
31 0 0
32 0 0
33 0 0
34 0 0
35 0 0
36 0 0
37 0 0
38 0 0
39 0 0
40 0 0
41 0 0
42 0 0
43 0 0
44 0 0
45 0 0
46 0 0
47 0 0
48 0 0
49 0 0
0 1 0
1 1 0
2 1 0
3 1 0
4 1 0
5 1 0
6 1 0
7 1 0
8 1 0
9 1 0
10 1 0
11 1 0
12 1 0
13 1 0
14 1 0
15 1 0
16 1 0
17 1 0
18 1 0
19 1 0
20 1 0
21 1 0
22 1 0
23 1 0
24 1 0
25 1 0
26 1 0
27 1 0
28 1 0
29 1 0
30 1 0
31 1 0
32 1 0
33 1 0
34 1 0
35 1 0
36 1 0
37 1 0
38 1 0
39 1 0
40 1 0
41 1 0
42 1 0
43 1 0
44 1 0
45 1 0
46 1 0
47 1 0
48 1 0
49 1 0
0 2 0
1 2 0
2 2 0
3 2 0
4 2 0
5 2 0
6 2 0
7 2 0
8 2 0
9 2 0
10 2 0
11 2 0
12 2 0
13 2 0
14 2 0
15 2 0
16 2 0
17 2 0
18 2 0
19 2 0
20 2 0
21 2 0
22 2 0
23 2 0
24 2 0
25 2 0
26 2 0
27 2 0
28 2 0
29 2 0
30 2 0
31 2 0
32 2 0
33 2 0
34 2 0
35 2 0
36 2 0
37 2 0
38 2 0
39 2 0
40 2 0
41 2 0
42 2 0
43 2 0
44 2 0
45 2 0
46 2 0
47 2 0
48 2 0
49 2 0
0 3 0
1 3 0
2 3 0
3 3 0
4 3 0
5 3 0
6 3 0
7 3 0
8 3 0
9 3 0
10 3 0
11 3 0
12 3 0
13 3 0
14 3 0
15 3 0
16 3 0
17 3 0
18 3 0
19 3 0
20 3 0
21 3 0
22 3 0
23 3 0
24 3 0
25 3 0
26 3 0
27 3 0
28 3 0
29 3 0
30 3 0
31 3 0
32 3 0
33 3 0
34 3 0
35 3 0
36 3 0
37 3 0
38 3 0
39 3 0
40 3 0
41 3 0
42 3 0
43 3 0
44 3 0
45 3 0
46 3 0
47 3 0
48 3 0
49 3 0
0 4 0
1 4 0
2 4 0
3 4 0
4 4 0
5 4 0
6 4 0
7 4 0
8 4 0
9 4 0
10 4 0
11 4 0
12 4 0
13 4 0
14 4 0
15 4 0
16 4 0
17 4 0
18 4 0
19 4 0
20 4 0
21 4 0
22 4 0
23 4 0
24 4 0
25 4 0
26 4 0
27 4 0
28 4 0
29 4 0
30 4 0
31 4 0
32 4 0
33 4 0
34 4 0
35 4 0
36 4 0
37 4 0
38 4 0
39 4 0
40 4 0
41 4 0
42 4 0
43 4 0
44 4 0
45 4 0
46 4 0
47 4 0
48 4 0
49 4 0
0 5 0
1 5 0
2 5 0
3 5 0
4 5 0
5 5 0
6 5 0
7 5 0
8 5 0
9 5 0
10 5 0
11 5 0
12 5 0
13 5 0
14 5 0
15 5 0
16 5 0
17 5 0
18 5 0
19 5 0
20 5 0
21 5 0
22 5 0
23 5 0
24 5 0
25 5 0
26 5 0
27 5 0
28 5 0
29 5 0
30 5 0
31 5 0
32 5 0
33 5 0
34 5 0
35 5 0
36 5 0
37 5 0
38 5 0
39 5 0
40 5 0
41 5 0
42 5 0
43 5 0
44 5 0
45 5 0
46 5 0
47 5 0
48 5 0
49 5 0
0 6 0
1 6 0
2 6 0
3 6 0
4 6 0
5 6 0
6 6 0
7 6 0
8 6 0
9 6 0
10 6 0
11 6 0
12 6 0
13 6 0
14 6 0
15 6 0
16 6 0
17 6 0
18 6 0
19 6 0
20 6 0
21 6 0
22 6 0
23 6 0
24 6 0
25 6 0
26 6 0
27 6 0
28 6 0
29 6 0
30 6 0
31 6 0
32 6 0
33 6 0
34 6 0
35 6 0
36 6 0
37 6 0
38 6 0
39 6 0
40 6 0
41 6 0
42 6 0
43 6 0
44 6 0
45 6 0
46 6 0
47 6 0
48 6 0
49 6 0
0 7 0
1 7 0
2 7 0
3 7 0
4 7 0
5 7 0
6 7 0
7 7 0
8 7 0
9 7 0
10 7 0
11 7 0
12 7 0
13 7 0
14 7 0
15 7 0
16 7 0
17 7 0
18 7 0
19 7 0
20 7 0
21 7 0
22 7 0
23 7 0
24 7 0
25 7 0
26 7 0
27 7 0
28 7 0
29 7 0
30 7 0
31 7 0
32 7 0
33 7 0
34 7 0
35 7 0
36 7 0
37 7 0
38 7 0
39 7 0
40 7 0
41 7 0
42 7 0
43 7 0
44 7 0
45 7 0
46 7 0
47 7 0
48 7 0
49 7 0
0 8 0
1 8 0
2 8 0
3 8 0
4 8 0
5 8 0
6 8 0
7 8 0
8 8 0
9 8 0
10 8 0
11 8 0
12 8 0
13 8 0
14 8 0
15 8 0
16 8 0
17 8 0
18 8 0
19 8 0
20 8 0
21 8 0
22 8 0
23 8 0
24 8 0
25 8 0
26 8 0
27 8 0
28 8 0
29 8 0
30 8 0
31 8 0
32 8 0
33 8 0
34 8 0
35 8 0
36 8 0
37 8 0
38 8 0
39 8 0
40 8 0
41 8 0
42 8 0
43 8 0
44 8 0
45 8 0
46 8 0
47 8 0
48 8 0
49 8 0
0 9 0
1 9 0
2 9 0
3 9 0
4 9 0
5 9 0
6 9 0
7 9 0
8 9 0
9 9 0
10 9 0
11 9 0
12 9 0
13 9 0
14 9 0
15 9 0
16 9 0
17 9 0
18 9 0
19 9 0
20 9 0
21 9 0
22 9 0
23 9 0
24 9 0
25 9 0
26 9 0
27 9 0
28 9 0
29 9 0
30 9 0
31 9 0
32 9 0
33 9 0
34 9 0
35 9 0
36 9 0
37 9 0
38 9 0
39 9 0
40 9 0
41 9 0
42 9 0
43 9 0
44 9 0
45 9 0
46 9 0
47 9 0
48 9 0
49 9 0
0 0 1
1 0 1
2 0 1
3 0 1
4 0 1
5 0 1
6 0 1
7 0 1
8 0 1
9 0 1
10 0 1
11 0 1
12 0 1
13 0 1
14 0 1
15 0 1
16 0 1
17 0 1
18 0 1
19 0 1
20 0 1
21 0 1
22 0 1
23 0 1
24 0 1
25 0 1
26 0 1
27 0 1
28 0 1
29 0 1
30 0 1
31 0 1
32 0 1
33 0 1
34 0 1
35 0 1
36 0 1
37 0 1
38 0 1
39 0 1
40 0 1
41 0 1
42 0 1
43 0 1
44 0 1
45 0 1
46 0 1
47 0 1
48 0 1
49 0 1
0 1 1
1 1 1
2 1 1
3 1 1
4 1 1
5 1 1
6 1 1
7 1 1
8 1 1
9 1 1
10 1 1
11 1 1
12 1 1
13 1 1
14 1 1
15 1 1
16 1 1
17 1 1
18 1 1
19 1 1
20 1 1
21 1 1
22 1 1
23 1 1
24 1 1
25 1 1
26 1 1
27 1 1
28 1 1
29 1 1
30 1 1
31 1 1
32 1 1
33 1 1
34 1 1
35 1 1
36 1 1
37 1 1
38 1 1
39 1 1
40 1 1
41 1 1
42 1 1
43 1 1
44 1 1
45 1 1
46 1 1
47 1 1
48 1 1
49 1 1
0 2 1
1 2 1
2 2 1
3 2 1
4 2 1
5 2 1
6 2 1
7 2 1
8 2 1
9 2 1
10 2 1
11 2 1
12 2 1
13 2 1
14 2 1
15 2 1
16 2 1
17 2 1
18 2 1
19 2 1
20 2 1
21 2 1
22 2 1
23 2 1
24 2 1
25 2 1
26 2 1
27 2 1
28 2 1
29 2 1
30 2 1
31 2 1
32 2 1
33 2 1
34 2 1
35 2 1
36 2 1
37 2 1
38 2 1
39 2 1
40 2 1
41 2 1
42 2 1
43 2 1
44 2 1
45 2 1
46 2 1
47 2 1
48 2 1
49 2 1
0 3 1
1 3 1
2 3 1
3 3 1
4 3 1
5 3 1
6 3 1
7 3 1
8 3 1
9 3 1
10 3 1
11 3 1
12 3 1
13 3 1
14 3 1
15 3 1
16 3 1
17 3 1
18 3 1
19 3 1
20 3 1
21 3 1
22 3 1
23 3 1
24 3 1
25 3 1
26 3 1
27 3 1
28 3 1
29 3 1
30 3 1
31 3 1
32 3 1
33 3 1
34 3 1
35 3 1
36 3 1
37 3 1
38 3 1
39 3 1
40 3 1
41 3 1
42 3 1
43 3 1
44 3 1
45 3 1
46 3 1
47 3 1
48 3 1
49 3 1
0 4 1
1 4 1
2 4 1
3 4 1
4 4 1
5 4 1
6 4 1
7 4 1
8 4 1
9 4 1
10 4 1
11 4 1
12 4 1
13 4 1
14 4 1
15 4 1
16 4 1
17 4 1
18 4 1
19 4 1
20 4 1
21 4 1
22 4 1
23 4 1
24 4 1
25 4 1
26 4 1
27 4 1
28 4 1
29 4 1
30 4 1
31 4 1
32 4 1
33 4 1
34 4 1
35 4 1
36 4 1
37 4 1
38 4 1
39 4 1
40 4 1
41 4 1
42 4 1
43 4 1
44 4 1
45 4 1
46 4 1
47 4 1
48 4 1
49 4 1
0 5 1
1 5 1
2 5 1
3 5 1
4 5 1
5 5 1
6 5 1
7 5 1
8 5 1
9 5 1
10 5 1
11 5 1
12 5 1
13 5 1
14 5 1
15 5 1
16 5 1
17 5 1
18 5 1
19 5 1
20 5 1
21 5 1
22 5 1
23 5 1
24 5 1
25 5 1
26 5 1
27 5 1
28 5 1
29 5 1
30 5 1
31 5 1
32 5 1
33 5 1
34 5 1
35 5 1
36 5 1
37 5 1
38 5 1
39 5 1
40 5 1
41 5 1
42 5 1
43 5 1
44 5 1
45 5 1
46 5 1
47 5 1
48 5 1
49 5 1
0 6 1
1 6 1
2 6 1
3 6 1
4 6 1
5 6 1
6 6 1
7 6 1
8 6 1
9 6 1
10 6 1
11 6 1
12 6 1
13 6 1
14 6 1
15 6 1
16 6 1
17 6 1
18 6 1
19 6 1
20 6 1
21 6 1
22 6 1
23 6 1
24 6 1
25 6 1
26 6 1
27 6 1
28 6 1
29 6 1
30 6 1
31 6 1
32 6 1
33 6 1
34 6 1
35 6 1
36 6 1
37 6 1
38 6 1
39 6 1
40 6 1
41 6 1
42 6 1
43 6 1
44 6 1
45 6 1
46 6 1
47 6 1
48 6 1
49 6 1
0 7 1
1 7 1
2 7 1
3 7 1
4 7 1
5 7 1
6 7 1
7 7 1
8 7 1
9 7 1
10 7 1
11 7 1
12 7 1
13 7 1
14 7 1
15 7 1
16 7 1
17 7 1
18 7 1
19 7 1
20 7 1
21 7 1
22 7 1
23 7 1
24 7 1
25 7 1
26 7 1
27 7 1
28 7 1
29 7 1
30 7 1
31 7 1
32 7 1
33 7 1
34 7 1
35 7 1
36 7 1
37 7 1
38 7 1
39 7 1
40 7 1
41 7 1
42 7 1
43 7 1
44 7 1
45 7 1
46 7 1
47 7 1
48 7 1
49 7 1
0 8 1
1 8 1
2 8 1
3 8 1
4 8 1
5 8 1
6 8 1
7 8 1
8 8 1
9 8 1
10 8 1
11 8 1
12 8 1
13 8 1
14 8 1
15 8 1
16 8 1
17 8 1
18 8 1
19 8 1
20 8 1
21 8 1
22 8 1
23 8 1
24 8 1
25 8 1
26 8 1
27 8 1
28 8 1
29 8 1
30 8 1
31 8 1
32 8 1
33 8 1
34 8 1
35 8 1
36 8 1
37 8 1
38 8 1
39 8 1
40 8 1
41 8 1
42 8 1
43 8 1
44 8 1
45 8 1
46 8 1
47 8 1
48 8 1
49 8 1
0 9 1
1 9 1
2 9 1
3 9 1
4 9 1
5 9 1
6 9 1
7 9 1
8 9 1
9 9 1
10 9 1
11 9 1
12 9 1
13 9 1
14 9 1
15 9 1
16 9 1
17 9 1
18 9 1
19 9 1
20 9 1
21 9 1
22 9 1
23 9 1
24 9 1
25 9 1
26 9 1
27 9 1
28 9 1
29 9 1
30 9 1
31 9 1
32 9 1
33 9 1
34 9 1
35 9 1
36 9 1
37 9 1
38 9 1
39 9 1
40 9 1
41 9 1
42 9 1
43 9 1
44 9 1
45 9 1
46 9 1
47 9 1
48 9 1
49 9 1
0 0 2
1 0 2
2 0 2
3 0 2
4 0 2
5 0 2
6 0 2
7 0 2
8 0 2
9 0 2
10 0 2
11 0 2
12 0 2
13 0 2
14 0 2
15 0 2
16 0 2
17 0 2
18 0 2
19 0 2
20 0 2
21 0 2
22 0 2
23 0 2
24 0 2
25 0 2
26 0 2
27 0 2
28 0 2
29 0 2
30 0 2
31 0 2
32 0 2
33 0 2
34 0 2
35 0 2
36 0 2
37 0 2
38 0 2
39 0 2
40 0 2
41 0 2
42 0 2
43 0 2
44 0 2
45 0 2
46 0 2
47 0 2
48 0 2
49 0 2
0 1 2
1 1 2
2 1 2
3 1 2
4 1 2
5 1 2
6 1 2
7 1 2
8 1 2
9 1 2
10 1 2
11 1 2
12 1 2
13 1 2
14 1 2
15 1 2
16 1 2
17 1 2
18 1 2
19 1 2
20 1 2
21 1 2
22 1 2
23 1 2
24 1 2
25 1 2
26 1 2
27 1 2
28 1 2
29 1 2
30 1 2
31 1 2
32 1 2
33 1 2
34 1 2
35 1 2
36 1 2
37 1 2
38 1 2
39 1 2
40 1 2
41 1 2
42 1 2
43 1 2
44 1 2
45 1 2
46 1 2
47 1 2
48 1 2
49 1 2
0 2 2
1 2 2
2 2 2
3 2 2
4 2 2
5 2 2
6 2 2
7 2 2
8 2 2
9 2 2
10 2 2
11 2 2
12 2 2
13 2 2
14 2 2
15 2 2
16 2 2
17 2 2
18 2 2
19 2 2
20 2 2
21 2 2
22 2 2
23 2 2
24 2 2
25 2 2
26 2 2
27 2 2
28 2 2
29 2 2
30 2 2
31 2 2
32 2 2
33 2 2
34 2 2
35 2 2
36 2 2
37 2 2
38 2 2
39 2 2
40 2 2
41 2 2
42 2 2
43 2 2
44 2 2
45 2 2
46 2 2
47 2 2
48 2 2
49 2 2
0 3 2
1 3 2
2 3 2
3 3 2
4 3 2
5 3 2
6 3 2
7 3 2
8 3 2
9 3 2
10 3 2
11 3 2
12 3 2
13 3 2
14 3 2
15 3 2
16 3 2
17 3 2
18 3 2
19 3 2
20 3 2
21 3 2
22 3 2
23 3 2
24 3 2
25 3 2
26 3 2
27 3 2
28 3 2
29 3 2
30 3 2
31 3 2
32 3 2
33 3 2
34 3 2
35 3 2
36 3 2
37 3 2
38 3 2
39 3 2
40 3 2
41 3 2
42 3 2
43 3 2
44 3 2
45 3 2
46 3 2
47 3 2
48 3 2
49 3 2
0 4 2
1 4 2
2 4 2
3 4 2
4 4 2
5 4 2
6 4 2
7 4 2
8 4 2
9 4 2
10 4 2
11 4 2
12 4 2
13 4 2
14 4 2
15 4 2
16 4 2
17 4 2
18 4 2
19 4 2
20 4 2
21 4 2
22 4 2
23 4 2
24 4 2
25 4 2
26 4 2
27 4 2
28 4 2
29 4 2
30 4 2
31 4 2
32 4 2
33 4 2
34 4 2
35 4 2
36 4 2
37 4 2
38 4 2
39 4 2
40 4 2
41 4 2
42 4 2
43 4 2
44 4 2
45 4 2
46 4 2
47 4 2
48 4 2
49 4 2
0 5 2
1 5 2
2 5 2
3 5 2
4 5 2
5 5 2
6 5 2
7 5 2
8 5 2
9 5 2
10 5 2
11 5 2
12 5 2
13 5 2
14 5 2
15 5 2
16 5 2
17 5 2
18 5 2
19 5 2
20 5 2
21 5 2
22 5 2
23 5 2
24 5 2
25 5 2
26 5 2
27 5 2
28 5 2
29 5 2
30 5 2
31 5 2
32 5 2
33 5 2
34 5 2
35 5 2
36 5 2
37 5 2
38 5 2
39 5 2
40 5 2
41 5 2
42 5 2
43 5 2
44 5 2
45 5 2
46 5 2
47 5 2
48 5 2
49 5 2
0 6 2
1 6 2
2 6 2
3 6 2
4 6 2
5 6 2
6 6 2
7 6 2
8 6 2
9 6 2
10 6 2
11 6 2
12 6 2
13 6 2
14 6 2
15 6 2
16 6 2
17 6 2
18 6 2
19 6 2
20 6 2
21 6 2
22 6 2
23 6 2
24 6 2
25 6 2
26 6 2
27 6 2
28 6 2
29 6 2
30 6 2
31 6 2
32 6 2
33 6 2
34 6 2
35 6 2
36 6 2
37 6 2
38 6 2
39 6 2
40 6 2
41 6 2
42 6 2
43 6 2
44 6 2
45 6 2
46 6 2
47 6 2
48 6 2
49 6 2
0 7 2
1 7 2
2 7 2
3 7 2
4 7 2
5 7 2
6 7 2
7 7 2
8 7 2
9 7 2
10 7 2
11 7 2
12 7 2
13 7 2
14 7 2
15 7 2
16 7 2
17 7 2
18 7 2
19 7 2
20 7 2
21 7 2
22 7 2
23 7 2
24 7 2
25 7 2
26 7 2
27 7 2
28 7 2
29 7 2
30 7 2
31 7 2
32 7 2
33 7 2
34 7 2
35 7 2
36 7 2
37 7 2
38 7 2
39 7 2
40 7 2
41 7 2
42 7 2
43 7 2
44 7 2
45 7 2
46 7 2
47 7 2
48 7 2
49 7 2
0 8 2
1 8 2
2 8 2
3 8 2
4 8 2
5 8 2
6 8 2
7 8 2
8 8 2
9 8 2
10 8 2
11 8 2
12 8 2
13 8 2
14 8 2
15 8 2
16 8 2
17 8 2
18 8 2
19 8 2
20 8 2
21 8 2
22 8 2
23 8 2
24 8 2
25 8 2
26 8 2
27 8 2
28 8 2
29 8 2
30 8 2
31 8 2
32 8 2
33 8 2
34 8 2
35 8 2
36 8 2
37 8 2
38 8 2
39 8 2
40 8 2
41 8 2
42 8 2
43 8 2
44 8 2
45 8 2
46 8 2
47 8 2
48 8 2
49 8 2
0 9 2
1 9 2
2 9 2
3 9 2
4 9 2
[...]
POINT_DATA 15000
SCALARS sol218 float
LOOKUP_TABLE default
58.1604
58.1574
58.1543
58.1513
58.1483
58.1452
58.1422
58.1391
58.1361
58.133
58.13
58.1269
58.1239
58.1208
58.1178
58.1148
58.1117
58.1087
58.1056
58.1026
58.0995
58.0965
58.0935
58.0904
58.0874
58.0843
58.0813
58.0783
58.0752
58.0722
58.0692
58.0661
58.0631
58.0601
58.057
58.054
58.0509
58.0479
58.0449
58.0418
58.0388
58.0358
58.0327
58.0297
58.0267
58.0237
58.0206
58.0176
58.0146
58.0115
58.0085
58.0055
58.0024
57.9994
57.9964
57.9934
57.9903
57.9873
57.9843
57.9813
57.9782
57.9752
57.9722
57.9692
57.9661
57.9631
57.9601
57.9571
57.9541
57.951
57.948
57.945
57.942
57.9389
57.9359
57.9329
57.9299
57.9269
57.9239
57.9208
57.9178
57.9148
57.9118
57.9088
57.9058
57.9027
57.8997
57.8967
57.8937
57.8907
57.8877
57.8847
57.8817
57.8786
57.8756
57.8726
57.8696
57.8666
57.8636
57.8606
57.8576
57.8546
57.8516
57.8485
57.8455
57.8425
57.8395
57.8365
57.8335
57.8305
57.8275
57.8245
57.8215
57.8185
57.8155
57.8125
57.8095
57.8065
57.8035
57.8005
57.7975
57.7945
57.7915
57.7885
57.7855
57.7825
57.7795
57.7765
57.7735
57.7705
57.7675
57.7645
57.7615
57.7585
57.7555
57.7525
57.7495
57.7465
57.7435
57.7405
57.7375
57.7346
57.7316
57.7286
57.7256
57.7226
57.7196
57.7166
57.7136
57.7106
57.7076
57.7047
57.7017
57.6987
57.6957
57.6927
57.6897
57.6867
57.6837
57.6808
57.6778
57.6748
57.6718
57.6688
57.6658
57.6629
57.6599
57.6569
57.6539
57.6509
57.6479
57.645
57.642
57.639
57.636
57.6331
57.6301
57.6271
57.6241
57.6211
57.6182
57.6152
57.6122
57.6092
57.6063
57.6033
57.6003
57.5973
57.5944
57.5914
57.5884
57.5854
57.5825
57.5795
57.5765
57.5736
57.5706
57.5676
57.5646
57.5617
57.5587
57.5557
57.5528
57.5498
57.5468
57.5439
57.5409
57.5379
57.535
57.532
57.529
57.5261
57.5231
57.5202
57.5172
57.5142
57.5113
57.5083
57.5053
57.5024
57.4994
57.4965
57.4935
57.4905
57.4876
57.4846
57.4817
57.4787
57.4757
57.4728
57.4698
57.4669
57.4639
57.461
57.458
57.4551
57.4521
57.4491
57.4462
57.4432
57.4403
57.4373
57.4344
57.4314
57.4285
57.4255
57.4226
57.4196
57.4167
57.4137
57.4108
57.4078
57.4049
57.4019
57.399
57.396
57.3931
57.3901
57.3872
57.3843
57.3813
57.3784
57.3754
57.3725
57.3695
57.3666
57.3637
57.3607
57.3578
57.3548
57.3519
57.3489
57.346
57.3431
57.3401
57.3372
57.3342
57.3313
57.3284
57.3254
57.3225
57.3196
57.3166
57.3137
57.3108
57.3078
57.3049
57.3019
57.299
57.2961
57.2931
57.2902
57.2873
57.2844
57.2814
57.2785
57.2756
57.2726
57.2697
57.2668
57.2638
57.2609
57.258
57.2551
57.2521
57.2492
57.2463
57.2433
57.2404
57.2375
57.2346
57.2316
57.2287
57.2258
57.2229
57.22
57.217
57.2141
57.2112
57.2083
57.2053
57.2024
57.1995
57.1966
57.1937
57.1907
57.1878
57.1849
57.182
57.1791
57.1762
57.1732
57.1703
57.1674
57.1645
57.1616
57.1587
57.1557
57.1528
57.1499
57.147
57.1441
57.1412
57.1383
57.1354
57.1324
57.1295
57.1266
57.1237
57.1208
57.1179
57.115
57.1121
57.1092
57.1063
57.1034
57.1004
57.0975
57.0946
57.0917
57.0888
57.0859
57.083
57.0801
57.0772
57.0743
57.0714
57.0685
57.0656
57.0627
57.0598
57.0569
57.054
57.0511
57.0482
57.0453
57.0424
57.0395
57.0366
57.0337
57.0308
57.0279
57.025
57.0221
57.0192
57.0163
57.0134
57.0105
57.0076
57.0047
57.0018
56.999
56.9961
56.9932
56.9903
56.9874
56.9845
56.9816
56.9787
56.9758
56.9729
56.97
56.9672
56.9643
56.9614
56.9585
56.9556
56.9527
56.9498
56.9469
56.9441
56.9412
56.9383
56.9354
56.9325
56.9296
56.9267
56.9239
56.921
56.9181
56.9152
56.9123
56.9095
56.9066
56.9037
56.9008
56.8979
56.8951
56.8922
56.8893
56.8864
56.8835
56.8807
56.8778
56.8749
56.872
56.8692
56.8663
56.8634
56.8605
56.8577
56.8548
56.8519
56.849
56.8462
56.8433
56.8404
56.8376
56.8347
56.8318
56.8289
56.8261
56.8232
56.8203
56.8175
56.8146
56.8117
56.8089
56.806
56.8031
56.8003
56.7974
56.7945
56.7917
56.7888
56.7859
56.7831
56.7802
56.7774
56.7745
56.7716
56.7688
56.7659
56.763
56.7602
56.7573
56.7545
56.7516
56.7487
56.7459
56.743
56.7402
56.7373
56.7345
56.7316
56.7287
56.7259
56.723
56.7202
56.7173
56.7145
56.7116
56.7088
56.7059
56.7031
56.7002
56.6973
56.6945
56.6916
56.6888
56.6859
56.6831
56.6802
56.6774
56.6745
56.6717
56.6688
56.666
56.6632
56.6603
56.6575
56.6546
56.6518
56.6489
56.6461
56.6432
56.6404
56.6375
56.6347
56.6319
56.629
56.6262
56.6233
56.6205
56.6176
56.6148
56.612
56.6091
56.6063
56.6034
56.6006
56.5978
56.5949
56.5921
56.5893
56.5864
56.5836
56.5807
56.5779
56.5751
56.5722
56.5694
56.5666
56.5637
56.5609
56.5581
56.5552
56.5524
56.5496
56.5467
56.5439
56.5411
56.5383
56.5354
56.5326
56.5298
56.5269
56.5241
56.5213
56.5185
56.5156
56.5128
56.51
56.5071
56.5043
56.5015
56.4987
56.4958
56.493
56.4902
56.4874
56.4846
56.4817
56.4789
56.4761
56.4733
56.4704
56.4676
56.4648
56.462
56.4592
56.4563
56.4535
56.4507
56.4479
56.4451
56.4423
56.4394
56.4366
56.4338
56.431
56.4282
56.4254
56.4225
56.4197
56.4169
56.4141
56.4113
56.4085
56.4057
56.4029
56.4
56.3972
56.3944
56.3916
56.3888
56.386
56.3832
56.3804
56.3776
56.3748
56.372
56.3691
56.3663
56.3635
56.3607
56.3579
56.3551
56.3523
56.3495
56.3467
56.3439
56.3411
56.3383
56.3355
56.3327
56.3299
56.3271
56.3243
56.3215
56.3187
56.3159
56.3131
56.3103
56.3075
56.3047
56.3019
56.2991
56.2963
56.2935
56.2907
56.2879
56.2851
56.2823
56.2795
56.2767
56.2739
56.2711
56.2683
56.2656
56.2628
56.26
56.2572
56.2544
56.2516
56.2488
56.246
56.2432
56.2404
56.2376
56.2349
56.2321
56.2293
56.2265
56.2237
56.2209
56.2181
56.2154
56.2126
56.2098
56.207
56.2042
56.2014
56.1986
56.1959
56.1931
56.1903
56.1875
56.1847
56.1819
56.1792
56.1764
56.1736
56.1708
56.168
56.1653
56.1625
56.1597
56.1569
56.1542
56.1514
56.1486
56.1458
56.1431
56.1403
56.1375
56.1347
56.132
56.1292
56.1264
56.1236
56.1209
56.1181
56.1153
56.1125
56.1098
56.107
56.1042
56.1015
56.0987
56.0959
56.0932
56.0904
56.0876
56.0848
56.0821
56.0793
56.0765
56.0738
56.071
56.0682
56.0655
56.0627
56.06
56.0572
56.0544
56.0517
56.0489
56.0461
56.0434
56.0406
56.0379
56.0351
56.0323
56.0296
56.0268
56.0241
56.0213
56.0185
56.0158
56.013
56.0103
56.0075
56.0047
56.002
55.9992
55.9965
55.9937
55.991
55.9882
55.9855
55.9827
55.98
55.9772
55.9744
55.9717
55.9689
55.9662
55.9634
55.9607
55.9579
55.9552
55.9524
55.9497
55.9469
55.9442
55.9414
55.9387
55.936
55.9332
55.9305
55.9277
55.925
55.9222
55.9195
55.9167
55.914
55.9112
55.9085
55.9058
55.903
55.9003
55.8975
55.8948
55.8921
55.8893
55.8866
55.8838
55.8811
55.8784
55.8756
55.8729
55.8701
55.8674
55.8647
55.8619
55.8592
55.8565
55.8537
55.851
55.8482
55.8455
55.8428
55.84
55.8373
55.8346
55.8318
55.8291
55.8264
55.8237
55.8209
55.8182
55.8155
55.8127
55.81
55.8073
55.8045
55.8018
55.7991
55.7964
55.7936
55.7909
55.7882
55.7854
55.7827
55.78
55.7773
55.7745
55.7718
55.7691
55.7664
55.7637
55.7609
55.7582
55.7555
55.7528
55.75
55.7473
55.7446
55.7419
55.7392
55.7364
55.7337
55.731
55.7283
55.7256
55.7229
55.7201
55.7174
55.7147
55.712
55.7093
55.7066
55.7038
55.7011
55.6984
55.6957
55.693
55.6903
55.6876
55.6848
55.6821
55.6794
55.6767
55.674
55.6713
55.6686
55.6659
55.6632
55.6605
55.6577
55.655
55.6523
55.6496
55.6469
55.6442
55.6415
55.6388
55.6361
55.6334
55.6307
55.628
55.6253
55.6226
55.6199
55.6172
55.6145
55.6118
55.6091
55.6064
55.6037
55.601
55.5983
55.5956
55.5929
55.5902
55.5875
55.5848
55.5821
55.5794
55.5767
55.574
55.5713
55.5686
55.5659
55.5632
55.5605
55.5578
55.5551
55.5524
55.5497
55.547
55.5443
55.5416
55.539
55.5363
55.5336
55.5309
55.5282
55.5255
55.5228
55.5201
55.5174
55.5147
55.5121
55.5094
55.5067
55.504
55.5013
55.4986
55.4959
55.4933
55.4906
55.4879
55.4852
55.4825
55.4798
55.4771
55.4745
55.4718
55.4691
55.4664
55.4637
55.4611
55.4584
55.4557
55.453
55.4503
55.4477
55.445
55.4423
55.4396
55.4369
55.4343
55.4316
55.4289
55.4262
55.4236
55.4209
55.4182
55.4155
55.4129
55.4102
55.4075
55.4048
55.4022
55.3995
55.3968
55.3942
55.3915
55.3888
55.3861
55.3835
55.3808
55.3781
55.3755
55.3728
55.3701
55.3675
55.3648
55.3621
55.3595
55.3568
55.3541
55.3515
55.3488
55.3461
55.3435
55.3408
55.3381
55.3355
55.3328
55.3302
55.3275
55.3248
55.3222
55.3195
55.3169
55.3142
55.3115
55.3089
55.3062
55.3036
55.3009
55.2982
55.2956
55.2929
55.2903
55.2876
55.285
55.2823
55.2796
55.277
55.2743
55.2717
55.269
55.2664
55.2637
55.2611
55.2584
55.2558
55.2531
55.2505
55.2478
55.2452
55.2425
55.2399
55.2372
55.2346
55.2319
55.2293
55.2266
55.224
55.2213
55.2187
55.216
55.2134
55.2107
55.2081
55.2055
55.2028
55.2002
55.1975
55.1949
55.1922
55.1896
55.1869
55.1843
55.1817
55.179
55.1764
55.1737
55.1711
55.1685
55.1658
55.1632
55.1605
55.1579
55.1553
55.1526
55.15
55.1474
55.1447
55.1421
55.1395
55.1368
55.1342
55.1315
55.1289
55.1263
55.1236
55.121
55.1184
55.1158
55.1131
55.1105
55.1079
55.1052
55.1026
55.1
55.0973
55.0947
55.0921
55.0895
55.0868
55.0842
55.0816
55.0789
55.0763
55.0737
55.0711
55.0684
55.0658
55.0632
55.0606
55.0579
55.0553
55.0527
55.0501
55.0474
55.0448
55.0422
55.0396
55.037
55.0343
55.0317
55.0291
55.0265
55.0239
55.0212
55.0186
55.016
55.0134
55.0108
55.0082
55.0055
55.0029
55.0003
54.9977
54.9951
54.9925
54.9899
54.9872
54.9846
54.982
54.9794
54.9768
54.9742
54.9716
54.969
54.9663
54.9637
54.9611
54.9585
54.9559
54.9533
54.9507
54.9481
54.9455
54.9429
54.9403
54.9376
54.935
54.9324
54.9298
54.9272
54.9246
54.922
54.9194
54.9168
54.9142
54.9116
54.909
54.9064
54.9038
54.9012
54.8986
54.896
54.8934
54.8908
54.8882
54.8856
54.883
54.8804
54.8778
54.8752
54.8726
54.87
54.8674
54.8648
54.8622
54.8596
54.857
54.8544
54.8518
54.8492
54.8466
54.8441
54.8415
54.8389
54.8363
54.8337
54.8311
54.8285
54.8259
54.8233
54.8207
54.8181
54.8155
54.813
54.8104
54.8078
54.8052
54.8026
54.8
54.7974
54.7948
54.7923
54.7897
54.7871
54.7845
54.7819
54.7793
54.7768
54.7742
54.7716
54.769
54.7664
54.7638
54.7613
54.7587
54.7561
54.7535
54.7509
54.7484
54.7458
54.7432
54.7406
54.738
54.7355
54.7329
54.7303
54.7277
54.7252
54.7226
54.72
54.7174
54.7149
54.7123
54.7097
54.7071
54.7046
54.702
54.6994
54.6968
54.6943
54.6917
54.6891
54.6866
54.684
54.6814
54.6788
54.6763
54.6737
54.6711
54.6686
54.666
54.6634
54.6609
54.6583
54.6557
54.6532
54.6506
54.648
54.6455
54.6429
54.6403
54.6378
54.6352
54.6326
54.6301
54.6275
54.625
54.6224
54.6198
54.6173
54.6147
54.6122
54.6096
54.607
54.6045
54.6019
54.5994
54.5968
54.5942
54.5917
54.5891
54.5866
54.584
54.5815
54.5789
54.5764
54.5738
54.5712
54.5687
54.5661
54.5636
54.561
54.5585
54.5559
54.5534
54.5508
54.5483
54.5457
54.5432
54.5406
54.5381
54.5355
54.533
54.5304
54.5279
54.5253
54.5228
54.5202
54.5177
54.5151
54.5126
54.5101
54.5075
54.505
54.5024
54.4999
54.4973
54.4948
54.4922
54.4897
54.4872
54.4846
54.4821
54.4795
54.477
54.4745
54.4719
54.4694
54.4668
54.4643
54.4618
54.4592
54.4567
54.4541
54.4516
54.4491
54.4465
54.444
54.4415
54.4389
54.4364
54.4339
54.4313
54.4288
54.4263
54.4237
54.4212
54.4187
54.4161
54.4136
54.4111
54.4085
54.406
54.4035
54.4009
54.3984
54.3959
54.3934
54.3908
54.3883
54.3858
54.3832
54.3807
54.3782
54.3757
54.3731
54.3706
54.3681
54.3656
54.363
54.3605
54.358
54.3555
54.3529
54.3504
54.3479
54.3454
54.3429
54.3403
54.3378
54.3353
54.3328
54.3303
54.3277
54.3252
54.3227
54.3202
54.3177
54.3151
54.3126
54.3101
54.3076
54.3051
54.3026
54.3001
54.2975
54.295
54.2925
54.29
54.2875
54.285
54.2825
54.2799
54.2774
54.2749
54.2724
54.2699
54.2674
54.2649
54.2624
54.2599
54.2574
54.2548
54.2523
54.2498
54.2473
54.2448
54.2423
54.2398
54.2373
54.2348
54.2323
54.2298
54.2273
54.2248
54.2223
54.2198
54.2173
54.2148
54.2123
54.2097
54.2072
54.2047
54.2022
54.1997
54.1972
54.1947
54.1922
54.1897
54.1872
54.1847
54.1823
54.1798
54.1773
54.1748
54.1723
54.1698
54.1673
54.1648
54.1623
54.1598
54.1573
54.1548
54.1523
54.1498
54.1473
54.1448
54.1423
54.1398
54.1373
54.1349
54.1324
54.1299
54.1274
54.1249
54.1224
54.1199
54.1174
54.1149
54.1125
54.11
54.1075
54.105
54.1025
54.1
54.0975
54.095
54.0926
54.0901
54.0876
54.0851
54.0826
54.0801
54.0777
54.0752
54.0727
54.0702
54.0677
54.0653
54.0628
54.0603
54.0578
54.0553
54.0529
54.0504
54.0479
54.0454
54.0429
54.0405
54.038
54.0355
54.033
54.0306
54.0281
54.0256
54.0231
54.0207
54.0182
54.0157
54.0132
54.0108
54.0083
54.0058
54.0033
54.0009
53.9984
53.9959
53.9935
53.991
53.9885
53.9861
53.9836
53.9811
53.9786
53.9762
53.9737
53.9712
53.9688
53.9663
53.9638
53.9614
53.9589
53.9564
53.954
53.9515
53.9491
53.9466
53.9441
53.9417
53.9392
53.9367
53.9343
53.9318
53.9294
53.9269
53.9244
53.922
53.9195
53.9171
53.9146
53.9121
53.9097
53.9072
53.9048
53.9023
53.8998
53.8974
53.8949
53.8925
53.89
53.8876
53.8851
53.8827
53.8802
53.8778
53.8753
53.8728
53.8704
53.8679
53.8655
53.863
53.8606
53.8581
53.8557
53.8532
53.8508
53.8483
53.8459
53.8434
53.841
53.8385
53.8361
53.8337
53.8312
53.8288
53.8263
53.8239
53.8214
53.819
53.8165
53.8141
53.8116
53.8092
53.8068
53.8043
53.8019
53.7994
53.797
53.7945
53.7921
53.7897
53.7872
53.7848
53.7823
53.7799
53.7775
53.775
53.7726
53.7702
53.7677
53.7653
53.7628
53.7604
53.758
53.7555
53.7531
53.7507
53.7482
53.7458
53.7434
53.7409
53.7385
53.7361
53.7336
53.7312
53.7288
53.7263
53.7239
53.7215
53.719
53.7166
53.7142
53.7118
53.7093
53.7069
53.7045
53.702
53.6996
53.6972
53.6948
53.6923
53.6899
53.6875
53.6851
53.6826
53.6802
53.6778
53.6754
53.6729
53.6705
53.6681
53.6657
53.6632
53.6608
53.6584
53.656
53.6536
53.6511
53.6487
53.6463
53.6439
53.6415
53.639
53.6366
53.6342
53.6318
53.6294
53.627
53.6245
53.6221
53.6197
53.6173
53.6149
53.6125
53.6101
53.6076
53.6052
53.6028
53.6004
53.598
53.5956
53.5932
53.5908
53.5883
53.5859
53.5835
53.5811
53.5787
53.5763
53.5739
53.5715
53.5691
53.5667
53.5643
53.5618
53.5594
53.557
53.5546
53.5522
53.5498
53.5474
53.545
53.5426
53.5402
53.5378
53.5354
53.533
53.5306
53.5282
53.5258
53.5234
53.521
53.5186
53.5162
53.5138
53.5114
53.509
53.5066
53.5042
53.5018
53.4994
53.497
53.4946
53.4922
53.4898
53.4874
53.485
53.4826
53.4802
53.4778
53.4754
53.473
53.4706
53.4683
53.4659
53.4635
53.4611
53.4587
53.4563
53.4539
53.4515
53.4491
53.4467
53.4443
53.442
53.4396
53.4372
53.4348
53.4324
53.43
53.4276
53.4252
53.4229
53.4205
53.4181
53.4157
53.4133
53.4109
53.4085
53.4062
53.4038
53.4014
53.399
53.3966
53.3942
53.3919
53.3895
53.3871
53.3847
53.3823
53.38
53.3776
53.3752
53.3728
53.3704
53.3681
53.3657
53.3633
53.3609
53.3586
53.3562
53.3538
53.3514
53.3491
53.3467
53.3443
53.3419
53.3396
53.3372
53.3348
53.3324
53.3301
53.3277
53.3253
53.3229
53.3206
53.3182
53.3158
53.3135
53.3111
53.3087
53.3064
53.304
53.3016
53.2993
53.2969
53.2945
53.2922
53.2898
53.2874
53.2851
53.2827
53.2803
53.278
53.2756
53.2732
53.2709
53.2685
53.2661
53.2638
53.2614
53.2591
53.2567
53.2543
53.252
53.2496
53.2473
53.2449
53.2425
53.2402
53.2378
53.2355
53.2331
53.2307
53.2284
53.226
53.2237
53.2213
53.219
53.2166
53.2142
53.2119
53.2095
53.2072
53.2048
53.2025
53.2001
53.1978
53.1954
53.1931
53.1907
53.1884
53.186
53.1837
53.1813
53.179
53.1766
53.1743
53.1719
53.1696
53.1672
53.1649
53.1625
53.1602
53.1578
53.1555
53.1531
53.1508
53.1484
53.1461
53.1438
53.1414
53.1391
53.1367
53.1344
53.132
53.1297
53.1274
53.125
53.1227
53.1203
53.118
53.1156
53.1133
53.111
53.1086
53.1063
53.104
53.1016
53.0993
53.0969
53.0946
53.0923
53.0899
53.0876
53.0853
53.0829
53.0806
53.0783
53.0759
53.0736
53.0712
53.0689
53.0666
53.0643
53.0619
53.0596
53.0573
53.0549
53.0526
53.0503
53.0479
53.0456
53.0433
53.0409
53.0386
53.0363
53.034
53.0316
53.0293
53.027
53.0247
53.0223
53.02
53.0177
53.0153
53.013
53.0107
53.0084
53.006
53.0037
53.0014
52.9991
52.9968
52.9944
52.9921
52.9898
52.9875
52.9852
52.9828
52.9805
52.9782
52.9759
52.9736
52.9712
52.9689
52.9666
52.9643
52.962
52.9596
52.9573
52.955
52.9527
52.9504
52.9481
52.9458
52.9434
52.9411
52.9388
52.9365
52.9342
52.9319
52.9296
52.9272
52.9249
52.9226
52.9203
52.918
52.9157
52.9134
52.9111
52.9088
52.9065
52.9041
52.9018
52.8995
52.8972
52.8949
52.8926
52.8903
52.888
52.8857
52.8834
52.8811
52.8788
52.8765
52.8742
52.8719
52.8696
52.8673
52.865
52.8627
52.8604
52.8581
52.8558
52.8535
52.8512
52.8489
52.8466
52.8443
52.842
52.8397
52.8374
52.8351
52.8328
52.8305
52.8282
52.8259
52.8236
52.8213
52.819
52.8167
52.8144
52.8121
52.8098
52.8075
52.8052
52.8029
52.8006
52.7983
52.796
52.7938
52.7915
52.7892
52.7869
52.7846
52.7823
52.78
52.7777
52.7754
52.7731
52.7709
52.7686
52.7663
52.764
52.7617
52.7594
52.7571
52.7549
52.7526
52.7503
52.748
52.7457
52.7434
52.7411
52.7389
52.7366
52.7343
52.732
52.7297
52.7274
52.7252
52.7229
52.7206
52.7183
52.716
52.7138
52.7115
52.7092
52.7069
52.7047
52.7024
52.7001
52.6978
52.6955
52.6933
52.691
52.6887
52.6864
52.6842
52.6819
52.6796
52.6773
52.6751
52.6728
52.6705
52.6683
52.666
52.6637
52.6614
52.6592
52.6569
52.6546
52.6524
52.6501
52.6478
52.6455
52.6433
52.641
52.6387
52.6365
52.6342
52.6319
52.6297
52.6274
52.6251
52.6229
52.6206
52.6183
52.6161
52.6138
52.6116
52.6093
52.607
52.6048
52.6025
52.6002
52.598
52.5957
52.5935
52.5912
52.5889
52.5867
52.5844
52.5822
52.5799
52.5776
52.5754
52.5731
52.5709
52.5686
52.5663
52.5641
52.5618
52.5596
52.5573
52.5551
52.5528
52.5506
52.5483
52.5461
52.5438
52.5415
52.5393
52.537
52.5348
52.5325
52.5303
52.528
52.5258
52.5235
52.5213
52.519
52.5168
52.5145
52.5123
52.51
52.5078
52.5055
52.5033
52.501
52.4988
52.4966
52.4943
52.4921
52.4898
52.4876
52.4853
52.4831
52.4808
52.4786
52.4764
52.4741
52.4719
52.4696
52.4674
52.4651
52.4629
52.4607
52.4584
52.4562
52.4539
52.4517
52.4495
52.4472
52.445
52.4428
52.4405
52.4383
52.436
52.4338
52.4316
52.4293
52.4271
52.4249
52.4226
52.4204
52.4182
52.4159
52.4137
52.4115
52.4092
52.407
52.4048
52.4025
52.4003
52.3981
52.3958
52.3936
52.3914
52.3891
52.3869
52.3847
52.3825
52.3802
52.378
52.3758
52.3735
52.3713
52.3691
52.3669
52.3646
52.3624
52.3602
52.358
52.3557
52.3535
52.3513
52.3491
52.3468
52.3446
52.3424
52.3402
52.338
52.3357
52.3335
52.3313
52.3291
52.3269
52.3246
52.3224
52.3202
52.318
52.3158
52.3135
52.3113
52.3091
52.3069
52.3047
52.3025
52.3002
52.298
52.2958
52.2936
52.2914
52.2892
52.287
52.2847
52.2825
52.2803
52.2781
52.2759
52.2737
52.2715
52.2693
52.267
52.2648
52.2626
52.2604
52.2582
52.256
52.2538
52.2516
52.2494
52.2472
52.245
52.2428
52.2405
52.2383
52.2361
52.2339
52.2317
52.2295
52.2273
52.2251
52.2229
52.2207
52.2185
52.2163
52.2141
52.2119
52.2097
52.2075
52.2053
52.2031
52.2009
52.1987
52.1965
52.1943
52.1921
52.1899
52.1877
52.1855
52.1833
52.1811
52.1789
52.1767
52.1745
52.1723
52.1701
52.1679
52.1657
52.1635
52.1613
52.1591
52.1569
52.1548
52.1526
52.1504
52.1482
52.146
52.1438
52.1416
52.1394
52.1372
52.135
52.1328
52.1307
52.1285
52.1263
52.1241
52.1219
52.1197
52.1175
52.1153
52.1131
52.111
52.1088
52.1066
52.1044
52.1022
52.1
52.0978
52.0957
52.0935
52.0913
52.0891
52.0869
52.0847
52.0826
52.0804
52.0782
52.076
52.0738
52.0717
52.0695
52.0673
52.0651
52.0629
52.0608
52.0586
52.0564
52.0542
52.0521
52.0499
52.0477
52.0455
52.0434
52.0412
52.039
52.0368
52.0347
52.0325
52.0303
52.0281
52.026
52.0238
52.0216
52.0194
52.0173
52.0151
52.0129
52.0108
52.0086
52.0064
52.0042
52.0021
51.9999
51.9977
51.9956
51.9934
51.9912
51.9891
51.9869
51.9847
51.9826
51.9804
51.9782
51.9761
51.9739
51.9717
51.9696
51.9674
51.9652
51.9631
51.9609
51.9588
51.9566
51.9544
51.9523
51.9501
51.948
51.9458
51.9436
51.9415
51.9393
51.9372
51.935
51.9328
51.9307
51.9285
51.9264
51.9242
51.922
51.9199
51.9177
51.9156
51.9134
51.9113
51.9091
51.907
51.9048
51.9027
51.9005
51.8983
51.8962
51.894
51.8919
51.8897
51.8876
51.8854
51.8833
51.8811
51.879
51.8768
51.8747
51.8725
51.8704
51.8682
51.8661
51.8639
51.8618
51.8596
51.8575
51.8554
51.8532
51.8511
51.8489
51.8468
51.8446
51.8425
51.8403
51.8382
51.8361
51.8339
51.8318
51.8296
51.8275
51.8253
51.8232
51.8211
51.8189
51.8168
51.8146
51.8125
51.8104
51.8082
51.8061
51.8039
51.8018
51.7997
51.7975
51.7954
51.7933
51.7911
51.789
51.7869
51.7847
51.7826
51.7804
51.7783
51.7762
51.774
51.7719
51.7698
51.7676
51.7655
51.7634
51.7613
51.7591
51.757
51.7549
51.7527
51.7506
51.7485
51.7463
51.7442
51.7421
51.74
51.7378
51.7357
51.7336
51.7314
51.7293
51.7272
51.7251
51.7229
51.7208
51.7187
51.7166
51.7144
51.7123
51.7102
51.7081
51.706
51.7038
51.7017
51.6996
51.6975
51.6953
51.6932
51.6911
51.689
51.6869
51.6847
51.6826
51.6805
51.6784
51.6763