# vtk DataFile Version 2.0
vtk output
ASCII
DATASET STRUCTURED_GRID
DIMENSIONS 50 10 30
POINTS 15000 float
0 0 0
1 0 0
2 0 0
3 0 0
4 0 0
5 0 0
6 0 0
7 0 0
8 0 0
9 0 0
10 0 0
11 0 0
12 0 0
13 0 0
14 0 0
15 0 0
16 0 0
17 0 0
18 0 0
19 0 0
20 0 0
21 0 0
22 0 0
23 0 0
24 0 0
25 0 0
26 0 0
27 0 0
28 0 0
29 0 0
30 0 0
31 0 0
32 0 0
33 0 0
34 0 0
35 0 0
36 0 0
37 0 0
38 0 0
39 0 0
40 0 0
41 0 0
42 0 0
43 0 0
44 0 0
45 0 0
46 0 0
47 0 0
48 0 0
49 0 0
0 1 0
1 1 0
2 1 0
3 1 0
4 1 0
5 1 0
6 1 0
7 1 0
8 1 0
9 1 0
10 1 0
11 1 0
12 1 0
13 1 0
14 1 0
15 1 0
16 1 0
17 1 0
18 1 0
19 1 0
20 1 0
21 1 0
22 1 0
23 1 0
24 1 0
25 1 0
26 1 0
27 1 0
28 1 0
29 1 0
30 1 0
31 1 0
32 1 0
33 1 0
34 1 0
35 1 0
36 1 0
37 1 0
38 1 0
39 1 0
40 1 0
41 1 0
42 1 0
43 1 0
44 1 0
45 1 0
46 1 0
47 1 0
48 1 0
49 1 0
0 2 0
1 2 0
2 2 0
3 2 0
4 2 0
5 2 0
6 2 0
7 2 0
8 2 0
9 2 0
10 2 0
11 2 0
12 2 0
13 2 0
14 2 0
15 2 0
16 2 0
17 2 0
18 2 0
19 2 0
20 2 0
21 2 0
22 2 0
23 2 0
24 2 0
25 2 0
26 2 0
27 2 0
28 2 0
29 2 0
30 2 0
31 2 0
32 2 0
33 2 0
34 2 0
35 2 0
36 2 0
37 2 0
38 2 0
39 2 0
40 2 0
41 2 0
42 2 0
43 2 0
44 2 0
45 2 0
46 2 0
47 2 0
48 2 0
49 2 0
0 3 0
1 3 0
2 3 0
3 3 0
4 3 0
5 3 0
6 3 0
7 3 0
8 3 0
9 3 0
10 3 0
11 3 0
12 3 0
13 3 0
14 3 0
15 3 0
16 3 0
17 3 0
18 3 0
19 3 0
20 3 0
21 3 0
22 3 0
23 3 0
24 3 0
25 3 0
26 3 0
27 3 0
28 3 0
29 3 0
30 3 0
31 3 0
32 3 0
33 3 0
34 3 0
35 3 0
36 3 0
37 3 0
38 3 0
39 3 0
40 3 0
41 3 0
42 3 0
43 3 0
44 3 0
45 3 0
46 3 0
47 3 0
48 3 0
49 3 0
0 4 0
1 4 0
2 4 0
3 4 0
4 4 0
5 4 0
6 4 0
7 4 0
8 4 0
9 4 0
10 4 0
11 4 0
12 4 0
13 4 0
14 4 0
15 4 0
16 4 0
17 4 0
18 4 0
19 4 0
20 4 0
21 4 0
22 4 0
23 4 0
24 4 0
25 4 0
26 4 0
27 4 0
28 4 0
29 4 0
30 4 0
31 4 0
32 4 0
33 4 0
34 4 0
35 4 0
36 4 0
37 4 0
38 4 0
39 4 0
40 4 0
41 4 0
42 4 0
43 4 0
44 4 0
45 4 0
46 4 0
47 4 0
48 4 0
49 4 0
0 5 0
1 5 0
2 5 0
3 5 0
4 5 0
5 5 0
6 5 0
7 5 0
8 5 0
9 5 0
10 5 0
11 5 0
12 5 0
13 5 0
14 5 0
15 5 0
16 5 0
17 5 0
18 5 0
19 5 0
20 5 0
21 5 0
22 5 0
23 5 0
24 5 0
25 5 0
26 5 0
27 5 0
28 5 0
29 5 0
30 5 0
31 5 0
32 5 0
33 5 0
34 5 0
35 5 0
36 5 0
37 5 0
38 5 0
39 5 0
40 5 0
41 5 0
42 5 0
43 5 0
44 5 0
45 5 0
46 5 0
47 5 0
48 5 0
49 5 0
0 6 0
1 6 0
2 6 0
3 6 0
4 6 0
5 6 0
6 6 0
7 6 0
8 6 0
9 6 0
10 6 0
11 6 0
12 6 0
13 6 0
14 6 0
15 6 0
16 6 0
17 6 0
18 6 0
19 6 0
20 6 0
21 6 0
22 6 0
23 6 0
24 6 0
25 6 0
26 6 0
27 6 0
28 6 0
29 6 0
30 6 0
31 6 0
32 6 0
33 6 0
34 6 0
35 6 0
36 6 0
37 6 0
38 6 0
39 6 0
40 6 0
41 6 0
42 6 0
43 6 0
44 6 0
45 6 0
46 6 0
47 6 0
48 6 0
49 6 0
0 7 0
1 7 0
2 7 0
3 7 0
4 7 0
5 7 0
6 7 0
7 7 0
8 7 0
9 7 0
10 7 0
11 7 0
12 7 0
13 7 0
14 7 0
15 7 0
16 7 0
17 7 0
18 7 0
19 7 0
20 7 0
21 7 0
22 7 0
23 7 0
24 7 0
25 7 0
26 7 0
27 7 0
28 7 0
29 7 0
30 7 0
31 7 0
32 7 0
33 7 0
34 7 0
35 7 0
36 7 0
37 7 0
38 7 0
39 7 0
40 7 0
41 7 0
42 7 0
43 7 0
44 7 0
45 7 0
46 7 0
47 7 0
48 7 0
49 7 0
0 8 0
1 8 0
2 8 0
3 8 0
4 8 0
5 8 0
6 8 0
7 8 0
8 8 0
9 8 0
10 8 0
11 8 0
12 8 0
13 8 0
14 8 0
15 8 0
16 8 0
17 8 0
18 8 0
19 8 0
20 8 0
21 8 0
22 8 0
23 8 0
24 8 0
25 8 0
26 8 0
27 8 0
28 8 0
29 8 0
30 8 0
31 8 0
32 8 0
33 8 0
34 8 0
35 8 0
36 8 0
37 8 0
38 8 0
39 8 0
40 8 0
41 8 0
42 8 0
43 8 0
44 8 0
45 8 0
46 8 0
47 8 0
48 8 0
49 8 0
0 9 0
1 9 0
2 9 0
3 9 0
4 9 0
5 9 0
6 9 0
7 9 0
8 9 0
9 9 0
10 9 0
11 9 0
12 9 0
13 9 0
14 9 0
15 9 0
16 9 0
17 9 0
18 9 0
19 9 0
20 9 0
21 9 0
22 9 0
23 9 0
24 9 0
25 9 0
26 9 0
27 9 0
28 9 0
29 9 0
30 9 0
31 9 0
32 9 0
33 9 0
34 9 0
35 9 0
36 9 0
37 9 0
38 9 0
39 9 0
40 9 0
41 9 0
42 9 0
43 9 0
44 9 0
45 9 0
46 9 0
47 9 0
48 9 0
49 9 0
0 0 1
1 0 1
2 0 1
3 0 1
4 0 1
5 0 1
6 0 1
7 0 1
8 0 1
9 0 1
10 0 1
11 0 1
12 0 1
13 0 1
14 0 1
15 0 1
16 0 1
17 0 1
18 0 1
19 0 1
20 0 1
21 0 1
22 0 1
23 0 1
24 0 1
25 0 1
26 0 1
27 0 1
28 0 1
29 0 1
30 0 1
31 0 1
32 0 1
33 0 1
34 0 1
35 0 1
36 0 1
37 0 1
38 0 1
39 0 1
40 0 1
41 0 1
42 0 1
43 0 1
44 0 1
45 0 1
46 0 1
47 0 1
48 0 1
49 0 1
0 1 1
1 1 1
2 1 1
3 1 1
4 1 1
5 1 1
6 1 1
7 1 1
8 1 1
9 1 1
10 1 1
11 1 1
12 1 1
13 1 1
14 1 1
15 1 1
16 1 1
17 1 1
18 1 1
19 1 1
20 1 1
21 1 1
22 1 1
23 1 1
24 1 1
25 1 1
26 1 1
27 1 1
28 1 1
29 1 1
30 1 1
31 1 1
32 1 1
33 1 1
34 1 1
35 1 1
36 1 1
37 1 1
38 1 1
39 1 1
40 1 1
41 1 1
42 1 1
43 1 1
44 1 1
45 1 1
46 1 1
47 1 1
48 1 1
49 1 1
0 2 1
1 2 1
2 2 1
3 2 1
4 2 1
5 2 1
6 2 1
7 2 1
8 2 1
9 2 1
10 2 1
11 2 1
12 2 1
13 2 1
14 2 1
15 2 1
16 2 1
17 2 1
18 2 1
19 2 1
20 2 1
21 2 1
22 2 1
23 2 1
24 2 1
25 2 1
26 2 1
27 2 1
28 2 1
29 2 1
30 2 1
31 2 1
32 2 1
33 2 1
34 2 1
35 2 1
36 2 1
37 2 1
38 2 1
39 2 1
40 2 1
41 2 1
42 2 1
43 2 1
44 2 1
45 2 1
46 2 1
47 2 1
48 2 1
49 2 1
0 3 1
1 3 1
2 3 1
3 3 1
4 3 1
5 3 1
6 3 1
7 3 1
8 3 1
9 3 1
10 3 1
11 3 1
12 3 1
13 3 1
14 3 1
15 3 1
16 3 1
17 3 1
18 3 1
19 3 1
20 3 1
21 3 1
22 3 1
23 3 1
24 3 1
25 3 1
26 3 1
27 3 1
28 3 1
29 3 1
30 3 1
31 3 1
32 3 1
33 3 1
34 3 1
35 3 1
36 3 1
37 3 1
38 3 1
39 3 1
40 3 1
41 3 1
42 3 1
43 3 1
44 3 1
45 3 1
46 3 1
47 3 1
48 3 1
49 3 1
0 4 1
1 4 1
2 4 1
3 4 1
4 4 1
5 4 1
6 4 1
7 4 1
8 4 1
9 4 1
10 4 1
11 4 1
12 4 1
13 4 1
14 4 1
15 4 1
16 4 1
17 4 1
18 4 1
19 4 1
20 4 1
21 4 1
22 4 1
23 4 1
24 4 1
25 4 1
26 4 1
27 4 1
28 4 1
29 4 1
30 4 1
31 4 1
32 4 1
33 4 1
34 4 1
35 4 1
36 4 1
37 4 1
38 4 1
39 4 1
40 4 1
41 4 1
42 4 1
43 4 1
44 4 1
45 4 1
46 4 1
47 4 1
48 4 1
49 4 1
0 5 1
1 5 1
2 5 1
3 5 1
4 5 1
5 5 1
6 5 1
7 5 1
8 5 1
9 5 1
10 5 1
11 5 1
12 5 1
13 5 1
14 5 1
15 5 1
16 5 1
17 5 1
18 5 1
19 5 1
20 5 1
21 5 1
22 5 1
23 5 1
24 5 1
25 5 1
26 5 1
27 5 1
28 5 1
29 5 1
30 5 1
31 5 1
32 5 1
33 5 1
34 5 1
35 5 1
36 5 1
37 5 1
38 5 1
39 5 1
40 5 1
41 5 1
42 5 1
43 5 1
44 5 1
45 5 1
46 5 1
47 5 1
48 5 1
49 5 1
0 6 1
1 6 1
2 6 1
3 6 1
4 6 1
5 6 1
6 6 1
7 6 1
8 6 1
9 6 1
10 6 1
11 6 1
12 6 1
13 6 1
14 6 1
15 6 1
16 6 1
17 6 1
18 6 1
19 6 1
20 6 1
21 6 1
22 6 1
23 6 1
24 6 1
25 6 1
26 6 1
27 6 1
28 6 1
29 6 1
30 6 1
31 6 1
32 6 1
33 6 1
34 6 1
35 6 1
36 6 1
37 6 1
38 6 1
39 6 1
40 6 1
41 6 1
42 6 1
43 6 1
44 6 1
45 6 1
46 6 1
47 6 1
48 6 1
49 6 1
0 7 1
1 7 1
2 7 1
3 7 1
4 7 1
5 7 1
6 7 1
7 7 1
8 7 1
9 7 1
10 7 1
11 7 1
12 7 1
13 7 1
14 7 1
15 7 1
16 7 1
17 7 1
18 7 1
19 7 1
20 7 1
21 7 1
22 7 1
23 7 1
24 7 1
25 7 1
26 7 1
27 7 1
28 7 1
29 7 1
30 7 1
31 7 1
32 7 1
33 7 1
34 7 1
35 7 1
36 7 1
37 7 1
38 7 1
39 7 1
40 7 1
41 7 1
42 7 1
43 7 1
44 7 1
45 7 1
46 7 1
47 7 1
48 7 1
49 7 1
0 8 1
1 8 1
2 8 1
3 8 1
4 8 1
5 8 1
6 8 1
7 8 1
8 8 1
9 8 1
10 8 1
11 8 1
12 8 1
13 8 1
14 8 1
15 8 1
16 8 1
17 8 1
18 8 1
19 8 1
20 8 1
21 8 1
22 8 1
23 8 1
24 8 1
25 8 1
26 8 1
27 8 1
28 8 1
29 8 1
30 8 1
31 8 1
32 8 1
33 8 1
34 8 1
35 8 1
36 8 1
37 8 1
38 8 1
39 8 1
40 8 1
41 8 1
42 8 1
43 8 1
44 8 1
45 8 1
46 8 1
47 8 1
48 8 1
49 8 1
0 9 1
1 9 1
2 9 1
3 9 1
4 9 1
5 9 1
6 9 1
7 9 1
8 9 1
9 9 1
10 9 1
11 9 1
12 9 1
13 9 1
14 9 1
15 9 1
16 9 1
17 9 1
18 9 1
19 9 1
20 9 1
21 9 1
22 9 1
23 9 1
24 9 1
25 9 1
26 9 1
27 9 1
28 9 1
29 9 1
30 9 1
31 9 1
32 9 1
33 9 1
34 9 1
35 9 1
36 9 1
37 9 1
38 9 1
39 9 1
40 9 1
41 9 1
42 9 1
43 9 1
44 9 1
45 9 1
46 9 1
47 9 1
48 9 1
49 9 1
0 0 2
1 0 2
2 0 2
3 0 2
4 0 2
5 0 2
6 0 2
7 0 2
8 0 2
9 0 2
10 0 2
11 0 2
12 0 2
13 0 2
14 0 2
15 0 2
16 0 2
17 0 2
18 0 2
19 0 2
20 0 2
21 0 2
22 0 2
23 0 2
24 0 2
25 0 2
26 0 2
27 0 2
28 0 2
29 0 2
30 0 2
31 0 2
32 0 2
33 0 2
34 0 2
35 0 2
36 0 2
37 0 2
38 0 2
39 0 2
40 0 2
41 0 2
42 0 2
43 0 2
44 0 2
45 0 2
46 0 2
47 0 2
48 0 2
49 0 2
0 1 2
1 1 2
2 1 2
3 1 2
4 1 2
5 1 2
6 1 2
7 1 2
8 1 2
9 1 2
10 1 2
11 1 2
12 1 2
13 1 2
14 1 2
15 1 2
16 1 2
17 1 2
18 1 2
19 1 2
20 1 2
21 1 2
22 1 2
23 1 2
24 1 2
25 1 2
26 1 2
27 1 2
28 1 2
29 1 2
30 1 2
31 1 2
32 1 2
33 1 2
34 1 2
35 1 2
36 1 2
37 1 2
38 1 2
39 1 2
40 1 2
41 1 2
42 1 2
43 1 2
44 1 2
45 1 2
46 1 2
47 1 2
48 1 2
49 1 2
0 2 2
1 2 2
2 2 2
3 2 2
4 2 2
5 2 2
6 2 2
7 2 2
8 2 2
9 2 2
10 2 2
11 2 2
12 2 2
13 2 2
14 2 2
15 2 2
16 2 2
17 2 2
18 2 2
19 2 2
20 2 2
21 2 2
22 2 2
23 2 2
24 2 2
25 2 2
26 2 2
27 2 2
28 2 2
29 2 2
30 2 2
31 2 2
32 2 2
33 2 2
34 2 2
35 2 2
36 2 2
37 2 2
38 2 2
39 2 2
40 2 2
41 2 2
42 2 2
43 2 2
44 2 2
45 2 2
46 2 2
47 2 2
48 2 2
49 2 2
0 3 2
1 3 2
2 3 2
3 3 2
4 3 2
5 3 2
6 3 2
7 3 2
8 3 2
9 3 2
10 3 2
11 3 2
12 3 2
13 3 2
14 3 2
15 3 2
16 3 2
17 3 2
18 3 2
19 3 2
20 3 2
21 3 2
22 3 2
23 3 2
24 3 2
25 3 2
26 3 2
27 3 2
28 3 2
29 3 2
30 3 2
31 3 2
32 3 2
33 3 2
34 3 2
35 3 2
36 3 2
37 3 2
38 3 2
39 3 2
40 3 2
41 3 2
42 3 2
43 3 2
44 3 2
45 3 2
46 3 2
47 3 2
48 3 2
49 3 2
0 4 2
1 4 2
2 4 2
3 4 2
4 4 2
5 4 2
6 4 2
7 4 2
8 4 2
9 4 2
10 4 2
11 4 2
12 4 2
13 4 2
14 4 2
15 4 2
16 4 2
17 4 2
18 4 2
19 4 2
20 4 2
21 4 2
22 4 2
23 4 2
24 4 2
25 4 2
26 4 2
27 4 2
28 4 2
29 4 2
30 4 2
31 4 2
32 4 2
33 4 2
34 4 2
35 4 2
36 4 2
37 4 2
38 4 2
39 4 2
40 4 2
41 4 2
42 4 2
43 4 2
44 4 2
45 4 2
46 4 2
47 4 2
48 4 2
49 4 2
0 5 2
1 5 2
2 5 2
3 5 2
4 5 2
5 5 2
6 5 2
7 5 2
8 5 2
9 5 2
10 5 2
11 5 2
12 5 2
13 5 2
14 5 2
15 5 2
16 5 2
17 5 2
18 5 2
19 5 2
20 5 2
21 5 2
22 5 2
23 5 2
24 5 2
25 5 2
26 5 2
27 5 2
28 5 2
29 5 2
30 5 2
31 5 2
32 5 2
33 5 2
34 5 2
35 5 2
36 5 2
37 5 2
38 5 2
39 5 2
40 5 2
41 5 2
42 5 2
43 5 2
44 5 2
45 5 2
46 5 2
47 5 2
48 5 2
49 5 2
0 6 2
1 6 2
2 6 2
3 6 2
4 6 2
5 6 2
6 6 2
7 6 2
8 6 2
9 6 2
10 6 2
11 6 2
12 6 2
13 6 2
14 6 2
15 6 2
16 6 2
17 6 2
18 6 2
19 6 2
20 6 2
21 6 2
22 6 2
23 6 2
24 6 2
25 6 2
26 6 2
27 6 2
28 6 2
29 6 2
30 6 2
31 6 2
32 6 2
33 6 2
34 6 2
35 6 2
36 6 2
37 6 2
38 6 2
39 6 2
40 6 2
41 6 2
42 6 2
43 6 2
44 6 2
45 6 2
46 6 2
47 6 2
48 6 2
49 6 2
0 7 2
1 7 2
2 7 2
3 7 2
4 7 2
5 7 2
6 7 2
7 7 2
8 7 2
9 7 2
10 7 2
11 7 2
12 7 2
13 7 2
14 7 2
15 7 2
16 7 2
17 7 2
18 7 2
19 7 2
20 7 2
21 7 2
22 7 2
23 7 2
24 7 2
25 7 2
26 7 2
27 7 2
28 7 2
29 7 2
30 7 2
31 7 2
32 7 2
33 7 2
34 7 2
35 7 2
36 7 2
37 7 2
38 7 2
39 7 2
40 7 2
41 7 2
42 7 2
43 7 2
44 7 2
45 7 2
46 7 2
47 7 2
48 7 2
49 7 2
0 8 2
1 8 2
2 8 2
3 8 2
4 8 2
5 8 2
6 8 2
7 8 2
8 8 2
9 8 2
10 8 2
11 8 2
12 8 2
13 8 2
14 8 2
15 8 2
16 8 2
17 8 2
18 8 2
19 8 2
20 8 2
21 8 2
22 8 2
23 8 2
24 8 2
25 8 2
26 8 2
27 8 2
28 8 2
29 8 2
30 8 2
31 8 2
32 8 2
33 8 2
34 8 2
35 8 2
36 8 2
37 8 2
38 8 2
39 8 2
40 8 2
41 8 2
42 8 2
43 8 2
44 8 2
45 8 2
46 8 2
47 8 2
48 8 2
49 8 2
0 9 2
1 9 2
2 9 2
3 9 2
4 9 2
[...]
POINT_DATA 15000
SCALARS sol214 float
LOOKUP_TABLE default
58.1346
58.1316
58.1285
58.1255
58.1224
58.1194
58.1163
58.1133
58.1102
58.1072
58.1042
58.1011
58.0981
58.095
58.092
58.0889
58.0859
58.0828
58.0798
58.0768
58.0737
58.0707
58.0676
58.0646
58.0616
58.0585
58.0555
58.0524
58.0494
58.0464
58.0433
58.0403
58.0373
58.0342
58.0312
58.0282
58.0251
58.0221
58.0191
58.016
58.013
58.01
58.0069
58.0039
58.0009
57.9978
57.9948
57.9918
57.9887
57.9857
57.9827
57.9796
57.9766
57.9736
57.9706
57.9675
57.9645
57.9615
57.9585
57.9554
57.9524
57.9494
57.9464
57.9433
57.9403
57.9373
57.9343
57.9312
57.9282
57.9252
57.9222
57.9192
57.9161
57.9131
57.9101
57.9071
57.9041
57.901
57.898
57.895
57.892
57.889
57.886
57.8829
57.8799
57.8769
57.8739
57.8709
57.8679
57.8649
57.8618
57.8588
57.8558
57.8528
57.8498
57.8468
57.8438
57.8408
57.8378
57.8348
57.8317
57.8287
57.8257
57.8227
57.8197
57.8167
57.8137
57.8107
57.8077
57.8047
57.8017
57.7987
57.7957
57.7927
57.7897
57.7867
57.7837
57.7807
57.7777
57.7747
57.7717
57.7687
57.7657
57.7627
57.7597
57.7567
57.7537
57.7507
57.7477
57.7447
57.7417
57.7387
57.7357
57.7327
57.7297
57.7267
57.7237
57.7207
57.7177
57.7147
57.7117
57.7087
57.7057
57.7027
57.6998
57.6968
57.6938
57.6908
57.6878
57.6848
57.6818
57.6788
57.6758
57.6728
57.6699
57.6669
57.6639
57.6609
57.6579
57.6549
57.6519
57.649
57.646
57.643
57.64
57.637
57.634
57.6311
57.6281
57.6251
57.6221
57.6191
57.6162
57.6132
57.6102
57.6072
57.6042
57.6013
57.5983
57.5953
57.5923
57.5894
57.5864
57.5834
57.5804
57.5775
57.5745
57.5715
57.5685
57.5656
57.5626
57.5596
57.5566
57.5537
57.5507
57.5477
57.5448
57.5418
57.5388
57.5359
57.5329
57.5299
57.5269
57.524
57.521
57.518
57.5151
57.5121
57.5091
57.5062
57.5032
57.5003
57.4973
57.4943
57.4914
57.4884
57.4854
57.4825
57.4795
57.4766
57.4736
57.4706
57.4677
57.4647
57.4618
57.4588
57.4558
57.4529
57.4499
57.447
57.444
57.4411
57.4381
57.4351
57.4322
57.4292
57.4263
57.4233
57.4204
57.4174
57.4145
57.4115
57.4086
57.4056
57.4027
57.3997
57.3968
57.3938
57.3909
57.3879
57.385
57.382
57.3791
57.3761
57.3732
57.3702
57.3673
57.3643
57.3614
57.3584
57.3555
57.3525
57.3496
57.3467
57.3437
57.3408
57.3378
57.3349
57.3319
57.329
57.3261
57.3231
57.3202
57.3172
57.3143
57.3114
57.3084
57.3055
57.3025
57.2996
57.2967
57.2937
57.2908
57.2879
57.2849
57.282
57.2791
57.2761
57.2732
57.2703
57.2673
57.2644
57.2615
57.2585
57.2556
57.2527
57.2497
57.2468
57.2439
57.2409
57.238
57.2351
57.2322
57.2292
57.2263
57.2234
57.2204
57.2175
57.2146
57.2117
57.2087
57.2058
57.2029
57.2
57.1971
57.1941
57.1912
57.1883
57.1854
57.1824
57.1795
57.1766
57.1737
57.1708
57.1678
57.1649
57.162
57.1591
57.1562
57.1532
57.1503
57.1474
57.1445
57.1416
57.1387
57.1357
57.1328
57.1299
57.127
57.1241
57.1212
57.1183
57.1154
57.1124
57.1095
57.1066
57.1037
57.1008
57.0979
57.095
57.0921
57.0892
57.0862
57.0833
57.0804
57.0775
57.0746
57.0717
57.0688
57.0659
57.063
57.0601
57.0572
57.0543
57.0514
57.0485
57.0456
57.0427
57.0398
57.0369
57.034
57.0311
57.0282
57.0253
57.0224
57.0195
57.0166
57.0137
57.0108
57.0079
57.005
57.0021
56.9992
56.9963
56.9934
56.9905
56.9876
56.9847
56.9818
56.9789
56.976
56.9731
56.9702
56.9673
56.9644
56.9616
56.9587
56.9558
56.9529
56.95
56.9471
56.9442
56.9413
56.9384
56.9355
56.9327
56.9298
56.9269
56.924
56.9211
56.9182
56.9153
56.9125
56.9096
56.9067
56.9038
56.9009
56.898
56.8952
56.8923
56.8894
56.8865
56.8836
56.8808
56.8779
56.875
56.8721
56.8692
56.8664
56.8635
56.8606
56.8577
56.8548
56.852
56.8491
56.8462
56.8433
56.8405
56.8376
56.8347
56.8318
56.829
56.8261
56.8232
56.8203
56.8175
56.8146
56.8117
56.8089
56.806
56.8031
56.8003
56.7974
56.7945
56.7916
56.7888
56.7859
56.783
56.7802
56.7773
56.7744
56.7716
56.7687
56.7658
56.763
56.7601
56.7573
56.7544
56.7515
56.7487
56.7458
56.7429
56.7401
56.7372
56.7344
56.7315
56.7286
56.7258
56.7229
56.7201
56.7172
56.7143
56.7115
56.7086
56.7058
56.7029
56.7001
56.6972
56.6943
56.6915
56.6886
56.6858
56.6829
56.6801
56.6772
56.6744
56.6715
56.6687
56.6658
56.663
56.6601
56.6573
56.6544
56.6516
56.6487
56.6459
56.643
56.6402
56.6373
56.6345
56.6316
56.6288
56.6259
56.6231
56.6203
56.6174
56.6146
56.6117
56.6089
56.606
56.6032
56.6003
56.5975
56.5947
56.5918
56.589
56.5861
56.5833
56.5805
56.5776
56.5748
56.5719
56.5691
56.5663
56.5634
56.5606
56.5578
56.5549
56.5521
56.5493
56.5464
56.5436
56.5407
56.5379
56.5351
56.5322
56.5294
56.5266
56.5238
56.5209
56.5181
56.5153
56.5124
56.5096
56.5068
56.5039
56.5011
56.4983
56.4955
56.4926
56.4898
56.487
56.4841
56.4813
56.4785
56.4757
56.4728
56.47
56.4672
56.4644
56.4615
56.4587
56.4559
56.4531
56.4503
56.4474
56.4446
56.4418
56.439
56.4362
56.4333
56.4305
56.4277
56.4249
56.4221
56.4192
56.4164
56.4136
56.4108
56.408
56.4052
56.4023
56.3995
56.3967
56.3939
56.3911
56.3883
56.3855
56.3827
56.3798
56.377
56.3742
56.3714
56.3686
56.3658
56.363
56.3602
56.3574
56.3545
56.3517
56.3489
56.3461
56.3433
56.3405
56.3377
56.3349
56.3321
56.3293
56.3265
56.3237
56.3209
56.3181
56.3153
56.3125
56.3097
56.3069
56.3041
56.3013
56.2985
56.2957
56.2929
56.2901
56.2873
56.2845
56.2817
56.2789
56.2761
56.2733
56.2705
56.2677
56.2649
56.2621
56.2593
56.2565
56.2537
56.2509
56.2481
56.2453
56.2425
56.2397
56.2369
56.2341
56.2314
56.2286
56.2258
56.223
56.2202
56.2174
56.2146
56.2118
56.209
56.2062
56.2035
56.2007
56.1979
56.1951
56.1923
56.1895
56.1867
56.184
56.1812
56.1784
56.1756
56.1728
56.17
56.1673
56.1645
56.1617
56.1589
56.1561
56.1533
56.1506
56.1478
56.145
56.1422
56.1394
56.1367
56.1339
56.1311
56.1283
56.1256
56.1228
56.12
56.1172
56.1145
56.1117
56.1089
56.1061
56.1034
56.1006
56.0978
56.095
56.0923
56.0895
56.0867
56.0839
56.0812
56.0784
56.0756
56.0729
56.0701
56.0673
56.0646
56.0618
56.059
56.0563
56.0535
56.0507
56.048
56.0452
56.0424
56.0397
56.0369
56.0341
56.0314
56.0286
56.0258
56.0231
56.0203
56.0176
56.0148
56.012
56.0093
56.0065
56.0037
56.001
55.9982
55.9955
55.9927
55.99
55.9872
55.9844
55.9817
55.9789
55.9762
55.9734
55.9707
55.9679
55.9651
55.9624
55.9596
55.9569
55.9541
55.9514
55.9486
55.9459
55.9431
55.9404
55.9376
55.9349
55.9321
55.9294
55.9266
55.9239
55.9211
55.9184
55.9156
55.9129
55.9101
55.9074
55.9046
55.9019
55.8991
55.8964
55.8937
55.8909
55.8882
55.8854
55.8827
55.8799
55.8772
55.8745
55.8717
55.869
55.8662
55.8635
55.8607
55.858
55.8553
55.8525
55.8498
55.847
55.8443
55.8416
55.8388
55.8361
55.8334
55.8306
55.8279
55.8252
55.8224
55.8197
55.817
55.8142
55.8115
55.8088
55.806
55.8033
55.8006
55.7978
55.7951
55.7924
55.7896
55.7869
55.7842
55.7814
55.7787
55.776
55.7733
55.7705
55.7678
55.7651
55.7623
55.7596
55.7569
55.7542
55.7514
55.7487
55.746
55.7433
55.7406
55.7378
55.7351
55.7324
55.7297
55.7269
55.7242
55.7215
55.7188
55.7161
55.7133
55.7106
55.7079
55.7052
55.7025
55.6997
55.697
55.6943
55.6916
55.6889
55.6862
55.6834
55.6807
55.678
55.6753
55.6726
55.6699
55.6672
55.6644
55.6617
55.659
55.6563
55.6536
55.6509
55.6482
55.6455
55.6428
55.64
55.6373
55.6346
55.6319
55.6292
55.6265
55.6238
55.6211
55.6184
55.6157
55.613
55.6103
55.6076
55.6049
55.6022
55.5994
55.5967
55.594
55.5913
55.5886
55.5859
55.5832
55.5805
55.5778
55.5751
55.5724
55.5697
55.567
55.5643
55.5616
55.5589
55.5562
55.5535
55.5508
55.5481
55.5455
55.5428
55.5401
55.5374
55.5347
55.532
55.5293
55.5266
55.5239
55.5212
55.5185
55.5158
55.5131
55.5104
55.5077
55.5051
55.5024
55.4997
55.497
55.4943
55.4916
55.4889
55.4862
55.4835
55.4809
55.4782
55.4755
55.4728
55.4701
55.4674
55.4647
55.4621
55.4594
55.4567
55.454
55.4513
55.4486
55.446
55.4433
55.4406
55.4379
55.4352
55.4325
55.4299
55.4272
55.4245
55.4218
55.4192
55.4165
55.4138
55.4111
55.4084
55.4058
55.4031
55.4004
55.3977
55.3951
55.3924
55.3897
55.387
55.3844
55.3817
55.379
55.3763
55.3737
55.371
55.3683
55.3657
55.363
55.3603
55.3577
55.355
55.3523
55.3496
55.347
55.3443
55.3416
55.339
55.3363
55.3336
55.331
55.3283
55.3256
55.323
55.3203
55.3176
55.315
55.3123
55.3097
55.307
55.3043
55.3017
55.299
55.2963
55.2937
55.291
55.2884
55.2857
55.283
55.2804
55.2777
55.2751
55.2724
55.2698
55.2671
55.2644
55.2618
55.2591
55.2565
55.2538
55.2512
55.2485
55.2459
55.2432
55.2405
55.2379
55.2352
55.2326
55.2299
55.2273
55.2246
55.222
55.2193
55.2167
55.214
55.2114
55.2087
55.2061
55.2034
55.2008
55.1981
55.1955
55.1929
55.1902
55.1876
55.1849
55.1823
55.1796
55.177
55.1743
55.1717
55.169
55.1664
55.1638
55.1611
55.1585
55.1558
55.1532
55.1506
55.1479
55.1453
55.1426
55.14
55.1374
55.1347
55.1321
55.1294
55.1268
55.1242
55.1215
55.1189
55.1163
55.1136
55.111
55.1084
55.1057
55.1031
55.1005
55.0978
55.0952
55.0926
55.0899
55.0873
55.0847
55.082
55.0794
55.0768
55.0741
55.0715
55.0689
55.0663
55.0636
55.061
55.0584
55.0557
55.0531
55.0505
55.0479
55.0452
55.0426
55.04
55.0374
55.0347
55.0321
55.0295
55.0269
55.0242
55.0216
55.019
55.0164
55.0138
55.0111
55.0085
55.0059
55.0033
55.0007
54.998
54.9954
54.9928
54.9902
54.9876
54.9849
54.9823
54.9797
54.9771
54.9745
54.9719
54.9693
54.9666
54.964
54.9614
54.9588
54.9562
54.9536
54.951
54.9483
54.9457
54.9431
54.9405
54.9379
54.9353
54.9327
54.9301
54.9275
54.9249
54.9222
54.9196
54.917
54.9144
54.9118
54.9092
54.9066
54.904
54.9014
54.8988
54.8962
54.8936
54.891
54.8884
54.8858
54.8832
54.8806
54.878
54.8754
54.8728
54.8702
54.8676
54.865
54.8624
54.8598
54.8572
54.8546
54.852
54.8494
54.8468
54.8442
54.8416
54.839
54.8364
54.8338
54.8312
54.8286
54.826
54.8234
54.8208
54.8182
54.8156
54.813
54.8104
54.8079
54.8053
54.8027
54.8001
54.7975
54.7949
54.7923
54.7897
54.7871
54.7845
54.782
54.7794
54.7768
54.7742
54.7716
54.769
54.7664
54.7638
54.7613
54.7587
54.7561
54.7535
54.7509
54.7483
54.7458
54.7432
54.7406
54.738
54.7354
54.7329
54.7303
54.7277
54.7251
54.7225
54.7199
54.7174
54.7148
54.7122
54.7096
54.7071
54.7045
54.7019
54.6993
54.6968
54.6942
54.6916
54.689
54.6865
54.6839
54.6813
54.6787
54.6762
54.6736
54.671
54.6684
54.6659
54.6633
54.6607
54.6582
54.6556
54.653
54.6504
54.6479
54.6453
54.6427
54.6402
54.6376
54.635
54.6325
54.6299
54.6273
54.6248
54.6222
54.6196
54.6171
54.6145
54.612
54.6094
54.6068
54.6043
54.6017
54.5991
54.5966
54.594
54.5915
54.5889
54.5863
54.5838
54.5812
54.5787
54.5761
54.5735
54.571
54.5684
54.5659
54.5633
54.5608
54.5582
54.5556
54.5531
54.5505
54.548
54.5454
54.5429
54.5403
54.5378
54.5352
54.5327
54.5301
54.5275
54.525
54.5224
54.5199
54.5173
54.5148
54.5122
54.5097
54.5071
54.5046
54.5021
54.4995
54.497
54.4944
54.4919
54.4893
54.4868
54.4842
54.4817
54.4791
54.4766
54.474
54.4715
54.469
54.4664
54.4639
54.4613
54.4588
54.4563
54.4537
54.4512
54.4486
54.4461
54.4435
54.441
54.4385
54.4359
54.4334
54.4309
54.4283
54.4258
54.4232
54.4207
54.4182
54.4156
54.4131
54.4106
54.408
54.4055
54.403
54.4004
54.3979
54.3954
54.3928
54.3903
54.3878
54.3852
54.3827
54.3802
54.3776
54.3751
54.3726
54.3701
54.3675
54.365
54.3625
54.3599
54.3574
54.3549
54.3524
54.3498
54.3473
54.3448
54.3423
54.3397
54.3372
54.3347
54.3322
54.3296
54.3271
54.3246
54.3221
54.3196
54.317
54.3145
54.312
54.3095
54.307
54.3044
54.3019
54.2994
54.2969
54.2944
54.2918
54.2893
54.2868
54.2843
54.2818
54.2793
54.2767
54.2742
54.2717
54.2692
54.2667
54.2642
54.2617
54.2591
54.2566
54.2541
54.2516
54.2491
54.2466
54.2441
54.2416
54.2391
54.2365
54.234
54.2315
54.229
54.2265
54.224
54.2215
54.219
54.2165
54.214
54.2115
54.209
54.2065
54.204
54.2014
54.1989
54.1964
54.1939
54.1914
54.1889
54.1864
54.1839
54.1814
54.1789
54.1764
54.1739
54.1714
54.1689
54.1664
54.1639
54.1614
54.1589
54.1564
54.1539
54.1514
54.1489
54.1464
54.1439
54.1414
54.1389
54.1365
54.134
54.1315
54.129
54.1265
54.124
54.1215
54.119
54.1165
54.114
54.1115
54.109
54.1065
54.1041
54.1016
54.0991
54.0966
54.0941
54.0916
54.0891
54.0866
54.0841
54.0817
54.0792
54.0767
54.0742
54.0717
54.0692
54.0667
54.0643
54.0618
54.0593
54.0568
54.0543
54.0518
54.0494
54.0469
54.0444
54.0419
54.0394
54.0369
54.0345
54.032
54.0295
54.027
54.0245
54.0221
54.0196
54.0171
54.0146
54.0122
54.0097
54.0072
54.0047
54.0023
53.9998
53.9973
53.9948
53.9924
53.9899
53.9874
53.9849
53.9825
53.98
53.9775
53.975
53.9726
53.9701
53.9676
53.9652
53.9627
53.9602
53.9578
53.9553
53.9528
53.9504
53.9479
53.9454
53.943
53.9405
53.938
53.9356
53.9331
53.9306
53.9282
53.9257
53.9232
53.9208
53.9183
53.9158
53.9134
53.9109
53.9085
53.906
53.9035
53.9011
53.8986
53.8961
53.8937
53.8912
53.8888
53.8863
53.8839
53.8814
53.8789
53.8765
53.874
53.8716
53.8691
53.8667
53.8642
53.8617
53.8593
53.8568
53.8544
53.8519
53.8495
53.847
53.8446
53.8421
53.8397
53.8372
53.8348
53.8323
53.8299
53.8274
53.825
53.8225
53.8201
53.8176
53.8152
53.8127
53.8103
53.8078
53.8054
53.8029
53.8005
53.798
53.7956
53.7932
53.7907
53.7883
53.7858
53.7834
53.7809
53.7785
53.776
53.7736
53.7712
53.7687
53.7663
53.7638
53.7614
53.759
53.7565
53.7541
53.7516
53.7492
53.7468
53.7443
53.7419
53.7395
53.737
53.7346
53.7321
53.7297
53.7273
53.7248
53.7224
53.72
53.7175
53.7151
53.7127
53.7102
53.7078
53.7054
53.7029
53.7005
53.6981
53.6956
53.6932
53.6908
53.6884
53.6859
53.6835
53.6811
53.6786
53.6762
53.6738
53.6714
53.6689
53.6665
53.6641
53.6617
53.6592
53.6568
53.6544
53.652
53.6495
53.6471
53.6447
53.6423
53.6398
53.6374
53.635
53.6326
53.6302
53.6277
53.6253
53.6229
53.6205
53.6181
53.6156
53.6132
53.6108
53.6084
53.606
53.6036
53.6011
53.5987
53.5963
53.5939
53.5915
53.5891
53.5866
53.5842
53.5818
53.5794
53.577
53.5746
53.5722
53.5698
53.5673
53.5649
53.5625
53.5601
53.5577
53.5553
53.5529
53.5505
53.5481
53.5457
53.5432
53.5408
53.5384
53.536
53.5336
53.5312
53.5288
53.5264
53.524
53.5216
53.5192
53.5168
53.5144
53.512
53.5096
53.5072
53.5048
53.5024
53.5
53.4976
53.4952
53.4928
53.4904
53.488
53.4856
53.4832
53.4808
53.4784
53.476
53.4736
53.4712
53.4688
53.4664
53.464
53.4616
53.4592
53.4568
53.4544
53.452
53.4496
53.4472
53.4448
53.4424
53.44
53.4376
53.4353
53.4329
53.4305
53.4281
53.4257
53.4233
53.4209
53.4185
53.4161
53.4137
53.4114
53.409
53.4066
53.4042
53.4018
53.3994
53.397
53.3946
53.3923
53.3899
53.3875
53.3851
53.3827
53.3803
53.378
53.3756
53.3732
53.3708
53.3684
53.366
53.3637
53.3613
53.3589
53.3565
53.3541
53.3518
53.3494
53.347
53.3446
53.3422
53.3399
53.3375
53.3351
53.3327
53.3304
53.328
53.3256
53.3232
53.3209
53.3185
53.3161
53.3137
53.3114
53.309
53.3066
53.3042
53.3019
53.2995
53.2971
53.2948
53.2924
53.29
53.2876
53.2853
53.2829
53.2805
53.2782
53.2758
53.2734
53.2711
53.2687
53.2663
53.264
53.2616
53.2592
53.2569
53.2545
53.2521
53.2498
53.2474
53.245
53.2427
53.2403
53.238
53.2356
53.2332
53.2309
53.2285
53.2261
53.2238
53.2214
53.2191
53.2167
53.2143
53.212
53.2096
53.2073
53.2049
53.2026
53.2002
53.1978
53.1955
53.1931
53.1908
53.1884
53.1861
53.1837
53.1814
53.179
53.1767
53.1743
53.1719
53.1696
53.1672
53.1649
53.1625
53.1602
53.1578
53.1555
53.1531
53.1508
53.1484
53.1461
53.1437
53.1414
53.139
53.1367
53.1344
53.132
53.1297
53.1273
53.125
53.1226
53.1203
53.1179
53.1156
53.1132
53.1109
53.1086
53.1062
53.1039
53.1015
53.0992
53.0968
53.0945
53.0922
53.0898
53.0875
53.0851
53.0828
53.0805
53.0781
53.0758
53.0735
53.0711
53.0688
53.0664
53.0641
53.0618
53.0594
53.0571
53.0548
53.0524
53.0501
53.0478
53.0454
53.0431
53.0408
53.0384
53.0361
53.0338
53.0314
53.0291
53.0268
53.0244
53.0221
53.0198
53.0174
53.0151
53.0128
53.0105
53.0081
53.0058
53.0035
53.0012
52.9988
52.9965
52.9942
52.9918
52.9895
52.9872
52.9849
52.9825
52.9802
52.9779
52.9756
52.9733
52.9709
52.9686
52.9663
52.964
52.9616
52.9593
52.957
52.9547
52.9524
52.95
52.9477
52.9454
52.9431
52.9408
52.9385
52.9361
52.9338
52.9315
52.9292
52.9269
52.9246
52.9222
52.9199
52.9176
52.9153
52.913
52.9107
52.9084
52.906
52.9037
52.9014
52.8991
52.8968
52.8945
52.8922
52.8899
52.8876
52.8852
52.8829
52.8806
52.8783
52.876
52.8737
52.8714
52.8691
52.8668
52.8645
52.8622
52.8599
52.8576
52.8553
52.853
52.8506
52.8483
52.846
52.8437
52.8414
52.8391
52.8368
52.8345
52.8322
52.8299
52.8276
52.8253
52.823
52.8207
52.8184
52.8161
52.8138
52.8115
52.8092
52.8069
52.8046
52.8023
52.8
52.7977
52.7955
52.7932
52.7909
52.7886
52.7863
52.784
52.7817
52.7794
52.7771
52.7748
52.7725
52.7702
52.7679
52.7656
52.7633
52.7611
52.7588
52.7565
52.7542
52.7519
52.7496
52.7473
52.745
52.7427
52.7405
52.7382
52.7359
52.7336
52.7313
52.729
52.7267
52.7245
52.7222
52.7199
52.7176
52.7153
52.713
52.7108
52.7085
52.7062
52.7039
52.7016
52.6993
52.6971
52.6948
52.6925
52.6902
52.6879
52.6857
52.6834
52.6811
52.6788
52.6766
52.6743
52.672
52.6697
52.6674
52.6652
52.6629
52.6606
52.6583
52.6561
52.6538
52.6515
52.6492
52.647
52.6447
52.6424
52.6402
52.6379
52.6356
52.6333
52.6311
52.6288
52.6265
52.6243
52.622
52.6197
52.6175
52.6152
52.6129
52.6106
52.6084
52.6061
52.6038
52.6016
52.5993
52.597
52.5948
52.5925
52.5903
52.588
52.5857
52.5835
52.5812
52.5789
52.5767
52.5744
52.5722
52.5699
52.5676
52.5654
52.5631
52.5608
52.5586
52.5563
52.5541
52.5518
52.5496
52.5473
52.545
52.5428
52.5405
52.5383
52.536
52.5338
52.5315
52.5292
52.527
52.5247
52.5225
52.5202
52.518
52.5157
52.5135
52.5112
52.509
52.5067
52.5045
52.5022
52.5
52.4977
52.4955
52.4932
52.491
52.4887
52.4865
52.4842
52.482
52.4797
52.4775
52.4752
52.473
52.4707
52.4685
52.4662
52.464
52.4617
52.4595
52.4573
52.455
52.4528
52.4505
52.4483
52.446
52.4438
52.4416
52.4393
52.4371
52.4348
52.4326
52.4304
52.4281
52.4259
52.4236
52.4214
52.4192
52.4169
52.4147
52.4125
52.4102
52.408
52.4057
52.4035
52.4013
52.399
52.3968
52.3946
52.3923
52.3901
52.3879
52.3856
52.3834
52.3812
52.3789
52.3767
52.3745
52.3722
52.37
52.3678
52.3655
52.3633
52.3611
52.3589
52.3566
52.3544
52.3522
52.3499
52.3477
52.3455
52.3433
52.341
52.3388
52.3366
52.3344
52.3321
52.3299
52.3277
52.3255
52.3232
52.321
52.3188
52.3166
52.3144
52.3121
52.3099
52.3077
52.3055
52.3032
52.301
52.2988
52.2966
52.2944
52.2922
52.2899
52.2877
52.2855
52.2833
52.2811
52.2788
52.2766
52.2744
52.2722
52.27
52.2678
52.2656
52.2633
52.2611
52.2589
52.2567
52.2545
52.2523
52.2501
52.2479
52.2456
52.2434
52.2412
52.239
52.2368
52.2346
52.2324
52.2302
52.228
52.2258
52.2235
52.2213
52.2191
52.2169
52.2147
52.2125
52.2103
52.2081
52.2059
52.2037
52.2015
52.1993
52.1971
52.1949
52.1927
52.1905
52.1883
52.1861
52.1839
52.1817
52.1795
52.1773
52.1751
52.1729
52.1707
52.1685
52.1663
52.1641
52.1619
52.1597
52.1575
52.1553
52.1531
52.1509
52.1487
52.1465
52.1443
52.1421
52.1399
52.1377
52.1355
52.1333
52.1311
52.1289
52.1267
52.1245
52.1224
52.1202
52.118
52.1158
52.1136
52.1114
52.1092
52.107
52.1048
52.1026
52.1004
52.0983
52.0961
52.0939
52.0917
52.0895
52.0873
52.0851
52.0829
52.0808
52.0786
52.0764
52.0742
52.072
52.0698
52.0677
52.0655
52.0633
52.0611
52.0589
52.0567
52.0546
52.0524
52.0502
52.048
52.0458
52.0437
52.0415
52.0393
52.0371
52.0349
52.0328
52.0306
52.0284
52.0262
52.0241
52.0219
52.0197
52.0175
52.0153
52.0132
52.011
52.0088
52.0067
52.0045
52.0023
52.0001
51.998
51.9958
51.9936
51.9914
51.9893
51.9871
51.9849
51.9828
51.9806
51.9784
51.9762
51.9741
51.9719
51.9697
51.9676
51.9654
51.9632
51.9611
51.9589
51.9567
51.9546
51.9524
51.9502
51.9481
51.9459
51.9437
51.9416
51.9394
51.9373
51.9351
51.9329
51.9308
51.9286
51.9264
51.9243
51.9221
51.92
51.9178
51.9156
51.9135
51.9113
51.9092
51.907
51.9049
51.9027
51.9005
51.8984
51.8962
51.8941
51.8919
51.8898
51.8876
51.8854
51.8833
51.8811
51.879
51.8768
51.8747
51.8725
51.8704
51.8682
51.8661
51.8639
51.8618
51.8596
51.8575
51.8553
51.8532
51.851
51.8489
51.8467
51.8446
51.8424
51.8403
51.8381
51.836
51.8338
51.8317
51.8295
51.8274
51.8252
51.8231
51.8209
51.8188
51.8167
51.8145
51.8124
51.8102
51.8081
51.8059
51.8038
51.8017
51.7995
51.7974
51.7952
51.7931
51.791
51.7888
51.7867
51.7845
51.7824
51.7803
51.7781
51.776
51.7738
51.7717
51.7696
51.7674
51.7653
51.7632
51.761
51.7589
51.7568
51.7546
51.7525
51.7504
51.7482
51.7461
51.744
51.7418
51.7397
51.7376
51.7354
51.7333
51.7312
51.729
51.7269
51.7248
51.7226
51.7205
51.7184
51.7163
51.7141
51.712
51.7099
51.7077
51.7056
51.7035
51.7014
51.6992
51.6971
51.695
51.6929
51.6907
51.6886
51.6865
51.6844
51.6823
51.6801
51.678
51.6759
51.6738
51.6716
51.6695
51.6674
51.6653
51.6632
51.661
51.6589
51.6568
51.6547
51.6526
51.6504
51.6483
51.6462
51.6441