# vtk DataFile Version 2.0
vtk output
ASCII
DATASET STRUCTURED_GRID
DIMENSIONS 50 10 30
POINTS 15000 float
0 0 0
1 0 0
2 0 0
3 0 0
4 0 0
5 0 0
6 0 0
7 0 0
8 0 0
9 0 0
10 0 0
11 0 0
12 0 0
13 0 0
14 0 0
15 0 0
16 0 0
17 0 0
18 0 0
19 0 0
20 0 0
21 0 0
22 0 0
23 0 0
24 0 0
25 0 0
26 0 0
27 0 0
28 0 0
29 0 0
30 0 0
31 0 0
32 0 0
33 0 0
34 0 0
35 0 0
36 0 0
37 0 0
38 0 0
39 0 0
40 0 0
41 0 0
42 0 0
43 0 0
44 0 0
45 0 0
46 0 0
47 0 0
48 0 0
49 0 0
0 1 0
1 1 0
2 1 0
3 1 0
4 1 0
5 1 0
6 1 0
7 1 0
8 1 0
9 1 0
10 1 0
11 1 0
12 1 0
13 1 0
14 1 0
15 1 0
16 1 0
17 1 0
18 1 0
19 1 0
20 1 0
21 1 0
22 1 0
23 1 0
24 1 0
25 1 0
26 1 0
27 1 0
28 1 0
29 1 0
30 1 0
31 1 0
32 1 0
33 1 0
34 1 0
35 1 0
36 1 0
37 1 0
38 1 0
39 1 0
40 1 0
41 1 0
42 1 0
43 1 0
44 1 0
45 1 0
46 1 0
47 1 0
48 1 0
49 1 0
0 2 0
1 2 0
2 2 0
3 2 0
4 2 0
5 2 0
6 2 0
7 2 0
8 2 0
9 2 0
10 2 0
11 2 0
12 2 0
13 2 0
14 2 0
15 2 0
16 2 0
17 2 0
18 2 0
19 2 0
20 2 0
21 2 0
22 2 0
23 2 0
24 2 0
25 2 0
26 2 0
27 2 0
28 2 0
29 2 0
30 2 0
31 2 0
32 2 0
33 2 0
34 2 0
35 2 0
36 2 0
37 2 0
38 2 0
39 2 0
40 2 0
41 2 0
42 2 0
43 2 0
44 2 0
45 2 0
46 2 0
47 2 0
48 2 0
49 2 0
0 3 0
1 3 0
2 3 0
3 3 0
4 3 0
5 3 0
6 3 0
7 3 0
8 3 0
9 3 0
10 3 0
11 3 0
12 3 0
13 3 0
14 3 0
15 3 0
16 3 0
17 3 0
18 3 0
19 3 0
20 3 0
21 3 0
22 3 0
23 3 0
24 3 0
25 3 0
26 3 0
27 3 0
28 3 0
29 3 0
30 3 0
31 3 0
32 3 0
33 3 0
34 3 0
35 3 0
36 3 0
37 3 0
38 3 0
39 3 0
40 3 0
41 3 0
42 3 0
43 3 0
44 3 0
45 3 0
46 3 0
47 3 0
48 3 0
49 3 0
0 4 0
1 4 0
2 4 0
3 4 0
4 4 0
5 4 0
6 4 0
7 4 0
8 4 0
9 4 0
10 4 0
11 4 0
12 4 0
13 4 0
14 4 0
15 4 0
16 4 0
17 4 0
18 4 0
19 4 0
20 4 0
21 4 0
22 4 0
23 4 0
24 4 0
25 4 0
26 4 0
27 4 0
28 4 0
29 4 0
30 4 0
31 4 0
32 4 0
33 4 0
34 4 0
35 4 0
36 4 0
37 4 0
38 4 0
39 4 0
40 4 0
41 4 0
42 4 0
43 4 0
44 4 0
45 4 0
46 4 0
47 4 0
48 4 0
49 4 0
0 5 0
1 5 0
2 5 0
3 5 0
4 5 0
5 5 0
6 5 0
7 5 0
8 5 0
9 5 0
10 5 0
11 5 0
12 5 0
13 5 0
14 5 0
15 5 0
16 5 0
17 5 0
18 5 0
19 5 0
20 5 0
21 5 0
22 5 0
23 5 0
24 5 0
25 5 0
26 5 0
27 5 0
28 5 0
29 5 0
30 5 0
31 5 0
32 5 0
33 5 0
34 5 0
35 5 0
36 5 0
37 5 0
38 5 0
39 5 0
40 5 0
41 5 0
42 5 0
43 5 0
44 5 0
45 5 0
46 5 0
47 5 0
48 5 0
49 5 0
0 6 0
1 6 0
2 6 0
3 6 0
4 6 0
5 6 0
6 6 0
7 6 0
8 6 0
9 6 0
10 6 0
11 6 0
12 6 0
13 6 0
14 6 0
15 6 0
16 6 0
17 6 0
18 6 0
19 6 0
20 6 0
21 6 0
22 6 0
23 6 0
24 6 0
25 6 0
26 6 0
27 6 0
28 6 0
29 6 0
30 6 0
31 6 0
32 6 0
33 6 0
34 6 0
35 6 0
36 6 0
37 6 0
38 6 0
39 6 0
40 6 0
41 6 0
42 6 0
43 6 0
44 6 0
45 6 0
46 6 0
47 6 0
48 6 0
49 6 0
0 7 0
1 7 0
2 7 0
3 7 0
4 7 0
5 7 0
6 7 0
7 7 0
8 7 0
9 7 0
10 7 0
11 7 0
12 7 0
13 7 0
14 7 0
15 7 0
16 7 0
17 7 0
18 7 0
19 7 0
20 7 0
21 7 0
22 7 0
23 7 0
24 7 0
25 7 0
26 7 0
27 7 0
28 7 0
29 7 0
30 7 0
31 7 0
32 7 0
33 7 0
34 7 0
35 7 0
36 7 0
37 7 0
38 7 0
39 7 0
40 7 0
41 7 0
42 7 0
43 7 0
44 7 0
45 7 0
46 7 0
47 7 0
48 7 0
49 7 0
0 8 0
1 8 0
2 8 0
3 8 0
4 8 0
5 8 0
6 8 0
7 8 0
8 8 0
9 8 0
10 8 0
11 8 0
12 8 0
13 8 0
14 8 0
15 8 0
16 8 0
17 8 0
18 8 0
19 8 0
20 8 0
21 8 0
22 8 0
23 8 0
24 8 0
25 8 0
26 8 0
27 8 0
28 8 0
29 8 0
30 8 0
31 8 0
32 8 0
33 8 0
34 8 0
35 8 0
36 8 0
37 8 0
38 8 0
39 8 0
40 8 0
41 8 0
42 8 0
43 8 0
44 8 0
45 8 0
46 8 0
47 8 0
48 8 0
49 8 0
0 9 0
1 9 0
2 9 0
3 9 0
4 9 0
5 9 0
6 9 0
7 9 0
8 9 0
9 9 0
10 9 0
11 9 0
12 9 0
13 9 0
14 9 0
15 9 0
16 9 0
17 9 0
18 9 0
19 9 0
20 9 0
21 9 0
22 9 0
23 9 0
24 9 0
25 9 0
26 9 0
27 9 0
28 9 0
29 9 0
30 9 0
31 9 0
32 9 0
33 9 0
34 9 0
35 9 0
36 9 0
37 9 0
38 9 0
39 9 0
40 9 0
41 9 0
42 9 0
43 9 0
44 9 0
45 9 0
46 9 0
47 9 0
48 9 0
49 9 0
0 0 1
1 0 1
2 0 1
3 0 1
4 0 1
5 0 1
6 0 1
7 0 1
8 0 1
9 0 1
10 0 1
11 0 1
12 0 1
13 0 1
14 0 1
15 0 1
16 0 1
17 0 1
18 0 1
19 0 1
20 0 1
21 0 1
22 0 1
23 0 1
24 0 1
25 0 1
26 0 1
27 0 1
28 0 1
29 0 1
30 0 1
31 0 1
32 0 1
33 0 1
34 0 1
35 0 1
36 0 1
37 0 1
38 0 1
39 0 1
40 0 1
41 0 1
42 0 1
43 0 1
44 0 1
45 0 1
46 0 1
47 0 1
48 0 1
49 0 1
0 1 1
1 1 1
2 1 1
3 1 1
4 1 1
5 1 1
6 1 1
7 1 1
8 1 1
9 1 1
10 1 1
11 1 1
12 1 1
13 1 1
14 1 1
15 1 1
16 1 1
17 1 1
18 1 1
19 1 1
20 1 1
21 1 1
22 1 1
23 1 1
24 1 1
25 1 1
26 1 1
27 1 1
28 1 1
29 1 1
30 1 1
31 1 1
32 1 1
33 1 1
34 1 1
35 1 1
36 1 1
37 1 1
38 1 1
39 1 1
40 1 1
41 1 1
42 1 1
43 1 1
44 1 1
45 1 1
46 1 1
47 1 1
48 1 1
49 1 1
0 2 1
1 2 1
2 2 1
3 2 1
4 2 1
5 2 1
6 2 1
7 2 1
8 2 1
9 2 1
10 2 1
11 2 1
12 2 1
13 2 1
14 2 1
15 2 1
16 2 1
17 2 1
18 2 1
19 2 1
20 2 1
21 2 1
22 2 1
23 2 1
24 2 1
25 2 1
26 2 1
27 2 1
28 2 1
29 2 1
30 2 1
31 2 1
32 2 1
33 2 1
34 2 1
35 2 1
36 2 1
37 2 1
38 2 1
39 2 1
40 2 1
41 2 1
42 2 1
43 2 1
44 2 1
45 2 1
46 2 1
47 2 1
48 2 1
49 2 1
0 3 1
1 3 1
2 3 1
3 3 1
4 3 1
5 3 1
6 3 1
7 3 1
8 3 1
9 3 1
10 3 1
11 3 1
12 3 1
13 3 1
14 3 1
15 3 1
16 3 1
17 3 1
18 3 1
19 3 1
20 3 1
21 3 1
22 3 1
23 3 1
24 3 1
25 3 1
26 3 1
27 3 1
28 3 1
29 3 1
30 3 1
31 3 1
32 3 1
33 3 1
34 3 1
35 3 1
36 3 1
37 3 1
38 3 1
39 3 1
40 3 1
41 3 1
42 3 1
43 3 1
44 3 1
45 3 1
46 3 1
47 3 1
48 3 1
49 3 1
0 4 1
1 4 1
2 4 1
3 4 1
4 4 1
5 4 1
6 4 1
7 4 1
8 4 1
9 4 1
10 4 1
11 4 1
12 4 1
13 4 1
14 4 1
15 4 1
16 4 1
17 4 1
18 4 1
19 4 1
20 4 1
21 4 1
22 4 1
23 4 1
24 4 1
25 4 1
26 4 1
27 4 1
28 4 1
29 4 1
30 4 1
31 4 1
32 4 1
33 4 1
34 4 1
35 4 1
36 4 1
37 4 1
38 4 1
39 4 1
40 4 1
41 4 1
42 4 1
43 4 1
44 4 1
45 4 1
46 4 1
47 4 1
48 4 1
49 4 1
0 5 1
1 5 1
2 5 1
3 5 1
4 5 1
5 5 1
6 5 1
7 5 1
8 5 1
9 5 1
10 5 1
11 5 1
12 5 1
13 5 1
14 5 1
15 5 1
16 5 1
17 5 1
18 5 1
19 5 1
20 5 1
21 5 1
22 5 1
23 5 1
24 5 1
25 5 1
26 5 1
27 5 1
28 5 1
29 5 1
30 5 1
31 5 1
32 5 1
33 5 1
34 5 1
35 5 1
36 5 1
37 5 1
38 5 1
39 5 1
40 5 1
41 5 1
42 5 1
43 5 1
44 5 1
45 5 1
46 5 1
47 5 1
48 5 1
49 5 1
0 6 1
1 6 1
2 6 1
3 6 1
4 6 1
5 6 1
6 6 1
7 6 1
8 6 1
9 6 1
10 6 1
11 6 1
12 6 1
13 6 1
14 6 1
15 6 1
16 6 1
17 6 1
18 6 1
19 6 1
20 6 1
21 6 1
22 6 1
23 6 1
24 6 1
25 6 1
26 6 1
27 6 1
28 6 1
29 6 1
30 6 1
31 6 1
32 6 1
33 6 1
34 6 1
35 6 1
36 6 1
37 6 1
38 6 1
39 6 1
40 6 1
41 6 1
42 6 1
43 6 1
44 6 1
45 6 1
46 6 1
47 6 1
48 6 1
49 6 1
0 7 1
1 7 1
2 7 1
3 7 1
4 7 1
5 7 1
6 7 1
7 7 1
8 7 1
9 7 1
10 7 1
11 7 1
12 7 1
13 7 1
14 7 1
15 7 1
16 7 1
17 7 1
18 7 1
19 7 1
20 7 1
21 7 1
22 7 1
23 7 1
24 7 1
25 7 1
26 7 1
27 7 1
28 7 1
29 7 1
30 7 1
31 7 1
32 7 1
33 7 1
34 7 1
35 7 1
36 7 1
37 7 1
38 7 1
39 7 1
40 7 1
41 7 1
42 7 1
43 7 1
44 7 1
45 7 1
46 7 1
47 7 1
48 7 1
49 7 1
0 8 1
1 8 1
2 8 1
3 8 1
4 8 1
5 8 1
6 8 1
7 8 1
8 8 1
9 8 1
10 8 1
11 8 1
12 8 1
13 8 1
14 8 1
15 8 1
16 8 1
17 8 1
18 8 1
19 8 1
20 8 1
21 8 1
22 8 1
23 8 1
24 8 1
25 8 1
26 8 1
27 8 1
28 8 1
29 8 1
30 8 1
31 8 1
32 8 1
33 8 1
34 8 1
35 8 1
36 8 1
37 8 1
38 8 1
39 8 1
40 8 1
41 8 1
42 8 1
43 8 1
44 8 1
45 8 1
46 8 1
47 8 1
48 8 1
49 8 1
0 9 1
1 9 1
2 9 1
3 9 1
4 9 1
5 9 1
6 9 1
7 9 1
8 9 1
9 9 1
10 9 1
11 9 1
12 9 1
13 9 1
14 9 1
15 9 1
16 9 1
17 9 1
18 9 1
19 9 1
20 9 1
21 9 1
22 9 1
23 9 1
24 9 1
25 9 1
26 9 1
27 9 1
28 9 1
29 9 1
30 9 1
31 9 1
32 9 1
33 9 1
34 9 1
35 9 1
36 9 1
37 9 1
38 9 1
39 9 1
40 9 1
41 9 1
42 9 1
43 9 1
44 9 1
45 9 1
46 9 1
47 9 1
48 9 1
49 9 1
0 0 2
1 0 2
2 0 2
3 0 2
4 0 2
5 0 2
6 0 2
7 0 2
8 0 2
9 0 2
10 0 2
11 0 2
12 0 2
13 0 2
14 0 2
15 0 2
16 0 2
17 0 2
18 0 2
19 0 2
20 0 2
21 0 2
22 0 2
23 0 2
24 0 2
25 0 2
26 0 2
27 0 2
28 0 2
29 0 2
30 0 2
31 0 2
32 0 2
33 0 2
34 0 2
35 0 2
36 0 2
37 0 2
38 0 2
39 0 2
40 0 2
41 0 2
42 0 2
43 0 2
44 0 2
45 0 2
46 0 2
47 0 2
48 0 2
49 0 2
0 1 2
1 1 2
2 1 2
3 1 2
4 1 2
5 1 2
6 1 2
7 1 2
8 1 2
9 1 2
10 1 2
11 1 2
12 1 2
13 1 2
14 1 2
15 1 2
16 1 2
17 1 2
18 1 2
19 1 2
20 1 2
21 1 2
22 1 2
23 1 2
24 1 2
25 1 2
26 1 2
27 1 2
28 1 2
29 1 2
30 1 2
31 1 2
32 1 2
33 1 2
34 1 2
35 1 2
36 1 2
37 1 2
38 1 2
39 1 2
40 1 2
41 1 2
42 1 2
43 1 2
44 1 2
45 1 2
46 1 2
47 1 2
48 1 2
49 1 2
0 2 2
1 2 2
2 2 2
3 2 2
4 2 2
5 2 2
6 2 2
7 2 2
8 2 2
9 2 2
10 2 2
11 2 2
12 2 2
13 2 2
14 2 2
15 2 2
16 2 2
17 2 2
18 2 2
19 2 2
20 2 2
21 2 2
22 2 2
23 2 2
24 2 2
25 2 2
26 2 2
27 2 2
28 2 2
29 2 2
30 2 2
31 2 2
32 2 2
33 2 2
34 2 2
35 2 2
36 2 2
37 2 2
38 2 2
39 2 2
40 2 2
41 2 2
42 2 2
43 2 2
44 2 2
45 2 2
46 2 2
47 2 2
48 2 2
49 2 2
0 3 2
1 3 2
2 3 2
3 3 2
4 3 2
5 3 2
6 3 2
7 3 2
8 3 2
9 3 2
10 3 2
11 3 2
12 3 2
13 3 2
14 3 2
15 3 2
16 3 2
17 3 2
18 3 2
19 3 2
20 3 2
21 3 2
22 3 2
23 3 2
24 3 2
25 3 2
26 3 2
27 3 2
28 3 2
29 3 2
30 3 2
31 3 2
32 3 2
33 3 2
34 3 2
35 3 2
36 3 2
37 3 2
38 3 2
39 3 2
40 3 2
41 3 2
42 3 2
43 3 2
44 3 2
45 3 2
46 3 2
47 3 2
48 3 2
49 3 2
0 4 2
1 4 2
2 4 2
3 4 2
4 4 2
5 4 2
6 4 2
7 4 2
8 4 2
9 4 2
10 4 2
11 4 2
12 4 2
13 4 2
14 4 2
15 4 2
16 4 2
17 4 2
18 4 2
19 4 2
20 4 2
21 4 2
22 4 2
23 4 2
24 4 2
25 4 2
26 4 2
27 4 2
28 4 2
29 4 2
30 4 2
31 4 2
32 4 2
33 4 2
34 4 2
35 4 2
36 4 2
37 4 2
38 4 2
39 4 2
40 4 2
41 4 2
42 4 2
43 4 2
44 4 2
45 4 2
46 4 2
47 4 2
48 4 2
49 4 2
0 5 2
1 5 2
2 5 2
3 5 2
4 5 2
5 5 2
6 5 2
7 5 2
8 5 2
9 5 2
10 5 2
11 5 2
12 5 2
13 5 2
14 5 2
15 5 2
16 5 2
17 5 2
18 5 2
19 5 2
20 5 2
21 5 2
22 5 2
23 5 2
24 5 2
25 5 2
26 5 2
27 5 2
28 5 2
29 5 2
30 5 2
31 5 2
32 5 2
33 5 2
34 5 2
35 5 2
36 5 2
37 5 2
38 5 2
39 5 2
40 5 2
41 5 2
42 5 2
43 5 2
44 5 2
45 5 2
46 5 2
47 5 2
48 5 2
49 5 2
0 6 2
1 6 2
2 6 2
3 6 2
4 6 2
5 6 2
6 6 2
7 6 2
8 6 2
9 6 2
10 6 2
11 6 2
12 6 2
13 6 2
14 6 2
15 6 2
16 6 2
17 6 2
18 6 2
19 6 2
20 6 2
21 6 2
22 6 2
23 6 2
24 6 2
25 6 2
26 6 2
27 6 2
28 6 2
29 6 2
30 6 2
31 6 2
32 6 2
33 6 2
34 6 2
35 6 2
36 6 2
37 6 2
38 6 2
39 6 2
40 6 2
41 6 2
42 6 2
43 6 2
44 6 2
45 6 2
46 6 2
47 6 2
48 6 2
49 6 2
0 7 2
1 7 2
2 7 2
3 7 2
4 7 2
5 7 2
6 7 2
7 7 2
8 7 2
9 7 2
10 7 2
11 7 2
12 7 2
13 7 2
14 7 2
15 7 2
16 7 2
17 7 2
18 7 2
19 7 2
20 7 2
21 7 2
22 7 2
23 7 2
24 7 2
25 7 2
26 7 2
27 7 2
28 7 2
29 7 2
30 7 2
31 7 2
32 7 2
33 7 2
34 7 2
35 7 2
36 7 2
37 7 2
38 7 2
39 7 2
40 7 2
41 7 2
42 7 2
43 7 2
44 7 2
45 7 2
46 7 2
47 7 2
48 7 2
49 7 2
0 8 2
1 8 2
2 8 2
3 8 2
4 8 2
5 8 2
6 8 2
7 8 2
8 8 2
9 8 2
10 8 2
11 8 2
12 8 2
13 8 2
14 8 2
15 8 2
16 8 2
17 8 2
18 8 2
19 8 2
20 8 2
21 8 2
22 8 2
23 8 2
24 8 2
25 8 2
26 8 2
27 8 2
28 8 2
29 8 2
30 8 2
31 8 2
32 8 2
33 8 2
34 8 2
35 8 2
36 8 2
37 8 2
38 8 2
39 8 2
40 8 2
41 8 2
42 8 2
43 8 2
44 8 2
45 8 2
46 8 2
47 8 2
48 8 2
49 8 2
0 9 2
1 9 2
2 9 2
3 9 2
4 9 2
[...]
POINT_DATA 15000
SCALARS sol74 float
LOOKUP_TABLE default
52.3604
52.3573
52.3543
52.3512
52.3482
52.3451
52.3421
52.339
52.336
52.3329
52.3299
52.3269
52.3238
52.3208
52.3177
52.3147
52.3116
52.3086
52.3056
52.3025
52.2995
52.2964
52.2934
52.2904
52.2873
52.2843
52.2812
52.2782
52.2752
52.2721
52.2691
52.2661
52.263
52.26
52.2569
52.2539
52.2509
52.2478
52.2448
52.2418
52.2387
52.2357
52.2327
52.2296
52.2266
52.2236
52.2205
52.2175
52.2145
52.2115
52.2084
52.2054
52.2024
52.1993
52.1963
52.1933
52.1903
52.1872
52.1842
52.1812
52.1782
52.1751
52.1721
52.1691
52.1661
52.163
52.16
52.157
52.154
52.151
52.1479
52.1449
52.1419
52.1389
52.1359
52.1328
52.1298
52.1268
52.1238
52.1208
52.1177
52.1147
52.1117
52.1087
52.1057
52.1027
52.0997
52.0966
52.0936
52.0906
52.0876
52.0846
52.0816
52.0786
52.0756
52.0725
52.0695
52.0665
52.0635
52.0605
52.0575
52.0545
52.0515
52.0485
52.0455
52.0425
52.0395
52.0364
52.0334
52.0304
52.0274
52.0244
52.0214
52.0184
52.0154
52.0124
52.0094
52.0064
52.0034
52.0004
51.9974
51.9944
51.9914
51.9884
51.9854
51.9824
51.9794
51.9764
51.9734
51.9704
51.9674
51.9644
51.9614
51.9584
51.9554
51.9524
51.9494
51.9465
51.9435
51.9405
51.9375
51.9345
51.9315
51.9285
51.9255
51.9225
51.9195
51.9165
51.9135
51.9106
51.9076
51.9046
51.9016
51.8986
51.8956
51.8926
51.8896
51.8867
51.8837
51.8807
51.8777
51.8747
51.8717
51.8687
51.8658
51.8628
51.8598
51.8568
51.8538
51.8509
51.8479
51.8449
51.8419
51.8389
51.836
51.833
51.83
51.827
51.824
51.8211
51.8181
51.8151
51.8121
51.8092
51.8062
51.8032
51.8002
51.7973
51.7943
51.7913
51.7883
51.7854
51.7824
51.7794
51.7765
51.7735
51.7705
51.7675
51.7646
51.7616
51.7586
51.7557
51.7527
51.7497
51.7468
51.7438
51.7408
51.7379
51.7349
51.7319
51.729
51.726
51.723
51.7201
51.7171
51.7142
51.7112
51.7082
51.7053
51.7023
51.6993
51.6964
51.6934
51.6905
51.6875
51.6845
51.6816
51.6786
51.6757
51.6727
51.6698
51.6668
51.6638
51.6609
51.6579
51.655
51.652
51.6491
51.6461
51.6432
51.6402
51.6373
51.6343
51.6314
51.6284
51.6255
51.6225
51.6196
51.6166
51.6137
51.6107
51.6078
51.6048
51.6019
51.5989
51.596
51.593
51.5901
51.5871
51.5842
51.5812
51.5783
51.5754
51.5724
51.5695
51.5665
51.5636
51.5606
51.5577
51.5548
51.5518
51.5489
51.5459
51.543
51.5401
51.5371
51.5342
51.5312
51.5283
51.5254
51.5224
51.5195
51.5166
51.5136
51.5107
51.5077
51.5048
51.5019
51.4989
51.496
51.4931
51.4901
51.4872
51.4843
51.4813
51.4784
51.4755
51.4726
51.4696
51.4667
51.4638
51.4608
51.4579
51.455
51.4521
51.4491
51.4462
51.4433
51.4404
51.4374
51.4345
51.4316
51.4287
51.4257
51.4228
51.4199
51.417
51.414
51.4111
51.4082
51.4053
51.4024
51.3994
51.3965
51.3936
51.3907
51.3878
51.3848
51.3819
51.379
51.3761
51.3732
51.3702
51.3673
51.3644
51.3615
51.3586
51.3557
51.3528
51.3498
51.3469
51.344
51.3411
51.3382
51.3353
51.3324
51.3295
51.3265
51.3236
51.3207
51.3178
51.3149
51.312
51.3091
51.3062
51.3033
51.3004
51.2975
51.2946
51.2917
51.2887
51.2858
51.2829
51.28
51.2771
51.2742
51.2713
51.2684
51.2655
51.2626
51.2597
51.2568
51.2539
51.251
51.2481
51.2452
51.2423
51.2394
51.2365
51.2336
51.2307
51.2278
51.2249
51.222
51.2191
51.2162
51.2133
51.2105
51.2076
51.2047
51.2018
51.1989
51.196
51.1931
51.1902
51.1873
51.1844
51.1815
51.1786
51.1757
51.1729
51.17
51.1671
51.1642
51.1613
51.1584
51.1555
51.1526
51.1498
51.1469
51.144
51.1411
51.1382
51.1353
51.1324
51.1296
51.1267
51.1238
51.1209
51.118
51.1151
51.1123
51.1094
51.1065
51.1036
51.1007
51.0979
51.095
51.0921
51.0892
51.0864
51.0835
51.0806
51.0777
51.0748
51.072
51.0691
51.0662
51.0633
51.0605
51.0576
51.0547
51.0518
51.049
51.0461
51.0432
51.0404
51.0375
51.0346
51.0317
51.0289
51.026
51.0231
51.0203
51.0174
51.0145
51.0117
51.0088
51.0059
51.0031
51.0002
50.9973
50.9945
50.9916
50.9887
50.9859
50.983
50.9801
50.9773
50.9744
50.9716
50.9687
50.9658
50.963
50.9601
50.9573
50.9544
50.9515
50.9487
50.9458
50.943
50.9401
50.9372
50.9344
50.9315
50.9287
50.9258
50.923
50.9201
50.9172
50.9144
50.9115
50.9087
50.9058
50.903
50.9001
50.8973
50.8944
50.8916
50.8887
50.8859
50.883
50.8802
50.8773
50.8745
50.8716
50.8688
50.8659
50.8631
50.8602
50.8574
50.8545
50.8517
50.8489
50.846
50.8432
50.8403
50.8375
50.8346
50.8318
50.8289
50.8261
50.8233
50.8204
50.8176
50.8147
50.8119
50.8091
50.8062
50.8034
50.8005
50.7977
50.7949
50.792
50.7892
50.7863
50.7835
50.7807
50.7778
50.775
50.7722
50.7693
50.7665
50.7637
50.7608
50.758
50.7552
50.7523
50.7495
50.7467
50.7438
50.741
50.7382
50.7354
50.7325
50.7297
50.7269
50.724
50.7212
50.7184
50.7156
50.7127
50.7099
50.7071
50.7042
50.7014
50.6986
50.6958
50.6929
50.6901
50.6873
50.6845
50.6817
50.6788
50.676
50.6732
50.6704
50.6675
50.6647
50.6619
50.6591
50.6563
50.6535
50.6506
50.6478
50.645
50.6422
50.6394
50.6365
50.6337
50.6309
50.6281
50.6253
50.6225
50.6197
50.6168
50.614
50.6112
50.6084
50.6056
50.6028
50.6
50.5972
50.5943
50.5915
50.5887
50.5859
50.5831
50.5803
50.5775
50.5747
50.5719
50.5691
50.5663
50.5635
50.5607
50.5578
50.555
50.5522
50.5494
50.5466
50.5438
50.541
50.5382
50.5354
50.5326
50.5298
50.527
50.5242
50.5214
50.5186
50.5158
50.513
50.5102
50.5074
50.5046
50.5018
50.499
50.4962
50.4934
50.4906
50.4878
50.485
50.4822
50.4795
50.4767
50.4739
50.4711
50.4683
50.4655
50.4627
50.4599
50.4571
50.4543
50.4515
50.4487
50.4459
50.4432
50.4404
50.4376
50.4348
50.432
50.4292
50.4264
50.4236
50.4209
50.4181
50.4153
50.4125
50.4097
50.4069
50.4041
50.4014
50.3986
50.3958
50.393
50.3902
50.3874
50.3847
50.3819
50.3791
50.3763
50.3735
50.3708
50.368
50.3652
50.3624
50.3596
50.3569
50.3541
50.3513
50.3485
50.3458
50.343
50.3402
50.3374
50.3347
50.3319
50.3291
50.3263
50.3236
50.3208
50.318
50.3152
50.3125
50.3097
50.3069
50.3042
50.3014
50.2986
50.2958
50.2931
50.2903
50.2875
50.2848
50.282
50.2792
50.2765
50.2737
50.2709
50.2682
50.2654
50.2626
50.2599
50.2571
50.2544
50.2516
50.2488
50.2461
50.2433
50.2405
50.2378
50.235
50.2323
50.2295
50.2267
50.224
50.2212
50.2185
50.2157
50.2129
50.2102
50.2074
50.2047
50.2019
50.1992
50.1964
50.1937
50.1909
50.1881
50.1854
50.1826
50.1799
50.1771
50.1744
50.1716
50.1689
50.1661
50.1634
50.1606
50.1579
50.1551
50.1524
50.1496
50.1469
50.1441
50.1414
50.1386
50.1359
50.1331
50.1304
50.1276
50.1249
50.1222
50.1194
50.1167
50.1139
50.1112
50.1084
50.1057
50.1029
50.1002
50.0975
50.0947
50.092
50.0892
50.0865
50.0838
50.081
50.0783
50.0755
50.0728
50.0701
50.0673
50.0646
50.0619
50.0591
50.0564
50.0536
50.0509
50.0482
50.0454
50.0427
50.04
50.0372
50.0345
50.0318
50.029
50.0263
50.0236
50.0208
50.0181
50.0154
50.0127
50.0099
50.0072
50.0045
50.0017
49.999
49.9963
49.9936
49.9908
49.9881
49.9854
49.9827
49.9799
49.9772
49.9745
49.9718
49.969
49.9663
49.9636
49.9609
49.9581
49.9554
49.9527
49.95
49.9472
49.9445
49.9418
49.9391
49.9364
49.9337
49.9309
49.9282
49.9255
49.9228
49.9201
49.9173
49.9146
49.9119
49.9092
49.9065
49.9038
49.9011
49.8983
49.8956
49.8929
49.8902
49.8875
49.8848
49.8821
49.8794
49.8766
49.8739
49.8712
49.8685
49.8658
49.8631
49.8604
49.8577
49.855
49.8523
49.8496
49.8468
49.8441
49.8414
49.8387
49.836
49.8333
49.8306
49.8279
49.8252
49.8225
49.8198
49.8171
49.8144
49.8117
49.809
49.8063
49.8036
49.8009
49.7982
49.7955
49.7928
49.7901
49.7874
49.7847
49.782
49.7793
49.7766
49.7739
49.7712
49.7685
49.7658
49.7631
49.7604
49.7577
49.755
49.7523
49.7496
49.747
49.7443
49.7416
49.7389
49.7362
49.7335
49.7308
49.7281
49.7254
49.7227
49.72
49.7174
49.7147
49.712
49.7093
49.7066
49.7039
49.7012
49.6985
49.6959
49.6932
49.6905
49.6878
49.6851
49.6824
49.6798
49.6771
49.6744
49.6717
49.669
49.6663
49.6637
49.661
49.6583
49.6556
49.6529
49.6503
49.6476
49.6449
49.6422
49.6396
49.6369
49.6342
49.6315
49.6288
49.6262
49.6235
49.6208
49.6181
49.6155
49.6128
49.6101
49.6074
49.6048
49.6021
49.5994
49.5968
49.5941
49.5914
49.5887
49.5861
49.5834
49.5807
49.5781
49.5754
49.5727
49.5701
49.5674
49.5647
49.5621
49.5594
49.5567
49.5541
49.5514
49.5487
49.5461
49.5434
49.5407
49.5381
49.5354
49.5327
49.5301
49.5274
49.5248
49.5221
49.5194
49.5168
49.5141
49.5115
49.5088
49.5061
49.5035
49.5008
49.4982
49.4955
49.4929
49.4902
49.4875
49.4849
49.4822
49.4796
49.4769
49.4743
49.4716
49.469
49.4663
49.4636
49.461
49.4583
49.4557
49.453
49.4504
49.4477
49.4451
49.4424
49.4398
49.4371
49.4345
49.4318
49.4292
49.4265
49.4239
49.4213
49.4186
49.416
49.4133
49.4107
49.408
49.4054
49.4027
49.4001
49.3974
49.3948
49.3922
49.3895
49.3869
49.3842
49.3816
49.379
49.3763
49.3737
49.371
49.3684
49.3658
49.3631
49.3605
49.3578
49.3552
49.3526
49.3499
49.3473
49.3447
49.342
49.3394
49.3367
49.3341
49.3315
49.3288
49.3262
49.3236
49.3209
49.3183
49.3157
49.313
49.3104
49.3078
49.3052
49.3025
49.2999
49.2973
49.2946
49.292
49.2894
49.2868
49.2841
49.2815
49.2789
49.2762
49.2736
49.271
49.2684
49.2657
49.2631
49.2605
49.2579
49.2552
49.2526
49.25
49.2474
49.2448
49.2421
49.2395
49.2369
49.2343
49.2317
49.229
49.2264
49.2238
49.2212
49.2186
49.2159
49.2133
49.2107
49.2081
49.2055
49.2029
49.2002
49.1976
49.195
49.1924
49.1898
49.1872
49.1846
49.1819
49.1793
49.1767
49.1741
49.1715
49.1689
49.1663
49.1637
49.161
49.1584
49.1558
49.1532
49.1506
49.148
49.1454
49.1428
49.1402
49.1376
49.135
49.1324
49.1298
49.1272
49.1245
49.1219
49.1193
49.1167
49.1141
49.1115
49.1089
49.1063
49.1037
49.1011
49.0985
49.0959
49.0933
49.0907
49.0881
49.0855
49.0829
49.0803
49.0777
49.0751
49.0725
49.0699
49.0673
49.0647
49.0621
49.0595
49.0569
49.0544
49.0518
49.0492
49.0466
49.044
49.0414
49.0388
49.0362
49.0336
49.031
49.0284
49.0258
49.0232
49.0207
49.0181
49.0155
49.0129
49.0103
49.0077
49.0051
49.0025
48.9999
48.9974
48.9948
48.9922
48.9896
48.987
48.9844
48.9818
48.9793
48.9767
48.9741
48.9715
48.9689
48.9663
48.9638
48.9612
48.9586
48.956
48.9534
48.9509
48.9483
48.9457
48.9431
48.9405
48.938
48.9354
48.9328
48.9302
48.9277
48.9251
48.9225
48.9199
48.9174
48.9148
48.9122
48.9096
48.9071
48.9045
48.9019
48.8993
48.8968
48.8942
48.8916
48.8891
48.8865
48.8839
48.8813
48.8788
48.8762
48.8736
48.8711
48.8685
48.8659
48.8634
48.8608
48.8582
48.8557
48.8531
48.8505
48.848
48.8454
48.8428
48.8403
48.8377
48.8351
48.8326
48.83
48.8275
48.8249
48.8223
48.8198
48.8172
48.8146
48.8121
48.8095
48.807
48.8044
48.8018
48.7993
48.7967
48.7942
48.7916
48.7891
48.7865
48.7839
48.7814
48.7788
48.7763
48.7737
48.7712
48.7686
48.7661
48.7635
48.761
48.7584
48.7559
48.7533
48.7508
48.7482
48.7457
48.7431
48.7406
48.738
48.7355
48.7329
48.7304
48.7278
48.7253
48.7227
48.7202
48.7176
48.7151
48.7125
48.71
48.7074
48.7049
48.7023
48.6998
48.6973
48.6947
48.6922
48.6896
48.6871
48.6845
48.682
48.6795
48.6769
48.6744
48.6718
48.6693
48.6668
48.6642
48.6617
48.6591
48.6566
48.6541
48.6515
48.649
48.6465
48.6439
48.6414
48.6389
48.6363
48.6338
48.6313
48.6287
48.6262
48.6237
48.6211
48.6186
48.6161
48.6135
48.611
48.6085
48.6059
48.6034
48.6009
48.5983
48.5958
48.5933
48.5908
48.5882
48.5857
48.5832
48.5806
48.5781
48.5756
48.5731
48.5705
48.568
48.5655
48.563
48.5604
48.5579
48.5554
48.5529
48.5504
48.5478
48.5453
48.5428
48.5403
48.5377
48.5352
48.5327
48.5302
48.5277
48.5251
48.5226
48.5201
48.5176
48.5151
48.5126
48.51
48.5075
48.505
48.5025
48.5
48.4975
48.495
48.4924
48.4899
48.4874
48.4849
48.4824
48.4799
48.4774
48.4748
48.4723
48.4698
48.4673
48.4648
48.4623
48.4598
48.4573
48.4548
48.4523
48.4498
48.4472
48.4447
48.4422
48.4397
48.4372
48.4347
48.4322
48.4297
48.4272
48.4247
48.4222
48.4197
48.4172
48.4147
48.4122
48.4097
48.4072
48.4047
48.4022
48.3997
48.3972
48.3947
48.3922
48.3897
48.3872
48.3847
48.3822
48.3797
48.3772
48.3747
48.3722
48.3697
48.3672
48.3647
48.3622
48.3597
48.3572
48.3547
48.3522
48.3497
48.3472
48.3448
48.3423
48.3398
48.3373
48.3348
48.3323
48.3298
48.3273
48.3248
48.3223
48.3198
48.3174
48.3149
48.3124
48.3099
48.3074
48.3049
48.3024
48.2999
48.2975
48.295
48.2925
48.29
48.2875
48.285
48.2826
48.2801
48.2776
48.2751
48.2726
48.2701
48.2677
48.2652
48.2627
48.2602
48.2577
48.2553
48.2528
48.2503
48.2478
48.2453
48.2429
48.2404
48.2379
48.2354
48.233
48.2305
48.228
48.2255
48.2231
48.2206
48.2181
48.2156
48.2132
48.2107
48.2082
48.2057
48.2033
48.2008
48.1983
48.1959
48.1934
48.1909
48.1884
48.186
48.1835
48.181
48.1786
48.1761
48.1736
48.1712
48.1687
48.1662
48.1638
48.1613
48.1588
48.1564
48.1539
48.1514
48.149
48.1465
48.1441
48.1416
48.1391
48.1367
48.1342
48.1317
48.1293
48.1268
48.1244
48.1219
48.1194
48.117
48.1145
48.1121
48.1096
48.1071
48.1047
48.1022
48.0998
48.0973
48.0949
48.0924
48.09
48.0875
48.085
48.0826
48.0801
48.0777
48.0752
48.0728
48.0703
48.0679
48.0654
48.063
48.0605
48.0581
48.0556
48.0532
48.0507
48.0483
48.0458
48.0434
48.0409
48.0385
48.036
48.0336
48.0311
48.0287
48.0262
48.0238
48.0214
48.0189
48.0165
48.014
48.0116
48.0091
48.0067
48.0042
48.0018
47.9994
47.9969
47.9945
47.992
47.9896
47.9872
47.9847
47.9823
47.9798
47.9774
47.975
47.9725
47.9701
47.9676
47.9652
47.9628
47.9603
47.9579
47.9555
47.953
47.9506
47.9482
47.9457
47.9433
47.9409
47.9384
47.936
47.9336
47.9311
47.9287
47.9263
47.9238
47.9214
47.919
47.9165
47.9141
47.9117
47.9093
47.9068
47.9044
47.902
47.8995
47.8971
47.8947
47.8923
47.8898
47.8874
47.885
47.8826
47.8801
47.8777
47.8753
47.8729
47.8704
47.868
47.8656
47.8632
47.8608
47.8583
47.8559
47.8535
47.8511
47.8487
47.8462
47.8438
47.8414
47.839
47.8366
47.8341
47.8317
47.8293
47.8269
47.8245
47.8221
47.8196
47.8172
47.8148
47.8124
47.81
47.8076
47.8052
47.8027
47.8003
47.7979
47.7955
47.7931
47.7907
47.7883
47.7859
47.7835
47.781
47.7786
47.7762
47.7738
47.7714
47.769
47.7666
47.7642
47.7618
47.7594
47.757
47.7546
47.7522
47.7497
47.7473
47.7449
47.7425
47.7401
47.7377
47.7353
47.7329
47.7305
47.7281
47.7257
47.7233
47.7209
47.7185
47.7161
47.7137
47.7113
47.7089
47.7065
47.7041
47.7017
47.6993
47.6969
47.6945
47.6921
47.6897
47.6873
47.6849
47.6825
47.6802
47.6778
47.6754
47.673
47.6706
47.6682
47.6658
47.6634
47.661
47.6586
47.6562
47.6538
47.6514
47.6491
47.6467
47.6443
47.6419
47.6395
47.6371
47.6347
47.6323
47.6299
47.6276
47.6252
47.6228
47.6204
47.618
47.6156
47.6132
47.6109
47.6085
47.6061
47.6037
47.6013
47.5989
47.5966
47.5942
47.5918
47.5894
47.587
47.5846
47.5823
47.5799
47.5775
47.5751
47.5728
47.5704
47.568
47.5656
47.5632
47.5609
47.5585
47.5561
47.5537
47.5514
47.549
47.5466
47.5442
47.5419
47.5395
47.5371
47.5347
47.5324
47.53
47.5276
47.5252
47.5229
47.5205
47.5181
47.5158
47.5134
47.511
47.5087
47.5063
47.5039
47.5016
47.4992
47.4968
47.4944
47.4921
47.4897
47.4873
47.485
47.4826
47.4803
47.4779
47.4755
47.4732
47.4708
47.4684
47.4661
47.4637
47.4613
47.459
47.4566
47.4543
47.4519
47.4495
47.4472
47.4448
47.4425
47.4401
47.4377
47.4354
47.433
47.4307
47.4283
47.426
47.4236
47.4212
47.4189
47.4165
47.4142
47.4118
47.4095
47.4071
47.4048
47.4024
47.4001
47.3977
47.3953
47.393
47.3906
47.3883
47.3859
47.3836
47.3812
47.3789
47.3765
47.3742
47.3718
47.3695
47.3671
47.3648
47.3625
47.3601
47.3578
47.3554
47.3531
47.3507
47.3484
47.346
47.3437
47.3413
47.339
47.3367
47.3343
47.332
47.3296
47.3273
47.3249
47.3226
47.3203
47.3179
47.3156
47.3132
47.3109
47.3086
47.3062
47.3039
47.3015
47.2992
47.2969
47.2945
47.2922
47.2899
47.2875
47.2852
47.2828
47.2805
47.2782
47.2758
47.2735
47.2712
47.2688
47.2665
47.2642
47.2618
47.2595
47.2572
47.2549
47.2525
47.2502
47.2479
47.2455
47.2432
47.2409
47.2385
47.2362
47.2339
47.2316
47.2292
47.2269
47.2246
47.2223
47.2199
47.2176
47.2153
47.213
47.2106
47.2083
47.206
47.2037
47.2013
47.199
47.1967
47.1944
47.192
47.1897
47.1874
47.1851
47.1828
47.1804
47.1781
47.1758
47.1735
47.1712
47.1688
47.1665
47.1642
47.1619
47.1596
47.1573
47.1549
47.1526
47.1503
47.148
47.1457
47.1434
47.1411
47.1387
47.1364
47.1341
47.1318
47.1295
47.1272
47.1249
47.1226
47.1202
47.1179
47.1156
47.1133
47.111
47.1087
47.1064
47.1041
47.1018
47.0995
47.0972
47.0948
47.0925
47.0902
47.0879
47.0856
47.0833
47.081
47.0787
47.0764
47.0741
47.0718
47.0695
47.0672
47.0649
47.0626
47.0603
47.058
47.0557
47.0534
47.0511
47.0488
47.0465
47.0442
47.0419
47.0396
47.0373
47.035
47.0327
47.0304
47.0281
47.0258
47.0235
47.0212
47.0189
47.0166
47.0143
47.012
47.0097
47.0074
47.0051
47.0029
47.0006
46.9983
46.996
46.9937
46.9914
46.9891
46.9868
46.9845
46.9822
46.9799
46.9777
46.9754
46.9731
46.9708
46.9685
46.9662
46.9639
46.9616
46.9594
46.9571
46.9548
46.9525
46.9502
46.9479
46.9456
46.9434
46.9411
46.9388
46.9365
46.9342
46.9319
46.9297
46.9274
46.9251
46.9228
46.9205
46.9183
46.916
46.9137
46.9114
46.9091
46.9069
46.9046
46.9023
46.9
46.8977
46.8955
46.8932
46.8909
46.8886
46.8864
46.8841
46.8818
46.8795
46.8773
46.875
46.8727
46.8705
46.8682
46.8659
46.8636
46.8614
46.8591
46.8568
46.8546
46.8523
46.85
46.8477
46.8455
46.8432
46.8409
46.8387
46.8364
46.8341
46.8319
46.8296
46.8273
46.8251
46.8228
46.8205
46.8183
46.816
46.8137
46.8115
46.8092
46.807
46.8047
46.8024
46.8002
46.7979
46.7956
46.7934
46.7911
46.7889
46.7866
46.7843
46.7821
46.7798
46.7776
46.7753
46.773
46.7708
46.7685
46.7663
46.764
46.7618
46.7595
46.7573
46.755
46.7527
46.7505
46.7482
46.746
46.7437
46.7415
46.7392
46.737
46.7347
46.7325
46.7302
46.728
46.7257
46.7235
46.7212
46.719
46.7167
46.7145
46.7122
46.71
46.7077
46.7055
46.7032
46.701
46.6987
46.6965
46.6942
46.692
46.6897
46.6875
46.6853
46.683
46.6808
46.6785
46.6763
46.674
46.6718
46.6696
46.6673
46.6651
46.6628
46.6606
46.6584
46.6561
46.6539
46.6516
46.6494
46.6472
46.6449
46.6427
46.6404
46.6382
46.636
46.6337
46.6315
46.6293
46.627
46.6248
46.6226
46.6203
46.6181
46.6159
46.6136
46.6114
46.6092
46.6069
46.6047
46.6025
46.6002
46.598
46.5958
46.5935
46.5913
46.5891
46.5868
46.5846
46.5824
46.5802
46.5779
46.5757
46.5735
46.5712
46.569
46.5668
46.5646
46.5623
46.5601
46.5579
46.5557
46.5534
46.5512
46.549
46.5468
46.5446
46.5423
46.5401
46.5379
46.5357
46.5334
46.5312
46.529
46.5268
46.5246
46.5223
46.5201
46.5179
46.5157
46.5135
46.5113
46.509
46.5068
46.5046
46.5024
46.5002
46.498
46.4957
46.4935
46.4913
46.4891
46.4869
46.4847
46.4825
46.4802
46.478
46.4758
46.4736
46.4714
46.4692
46.467
46.4648
46.4626
46.4603
46.4581
46.4559
46.4537
46.4515
46.4493
46.4471
46.4449
46.4427
46.4405
46.4383
46.4361
46.4339
46.4316
46.4294
46.4272
46.425
46.4228
46.4206
46.4184
46.4162
46.414
46.4118
46.4096
46.4074
46.4052
46.403
46.4008
46.3986
46.3964
46.3942
46.392
46.3898
46.3876
46.3854
46.3832
46.381
46.3788
46.3766
46.3744
46.3722
46.37
46.3678
46.3657
46.3635
46.3613
46.3591
46.3569
46.3547
46.3525
46.3503
46.3481
46.3459
46.3437
46.3415
46.3393
46.3371
46.335
46.3328
46.3306
46.3284
46.3262
46.324
46.3218
46.3196
46.3174
46.3153
46.3131
46.3109
46.3087
46.3065
46.3043
46.3021
46.3
46.2978
46.2956
46.2934
46.2912
46.289
46.2869
46.2847
46.2825
46.2803
46.2781
46.276
46.2738
46.2716
46.2694
46.2672
46.2651
46.2629
46.2607
46.2585
46.2563
46.2542
46.252
46.2498
46.2476
46.2455
46.2433
46.2411
46.2389
46.2368
46.2346
46.2324
46.2302
46.2281
46.2259
46.2237
46.2215
46.2194
46.2172
46.215
46.2129
46.2107
46.2085
46.2063
46.2042
46.202
46.1998
46.1977
46.1955
46.1933
46.1912
46.189
46.1868
46.1847
46.1825
46.1803
46.1782
46.176
46.1738
46.1717
46.1695
46.1673
46.1652
46.163
46.1608
46.1587
46.1565
46.1544
46.1522
46.15
46.1479
46.1457
46.1436
46.1414
46.1392
46.1371
46.1349
46.1328
46.1306
46.1284
46.1263
46.1241
46.122
46.1198
46.1177
46.1155
46.1134
46.1112
46.109
46.1069
46.1047
46.1026
46.1004
46.0983
46.0961
46.094
46.0918
46.0897
46.0875
46.0854
46.0832
46.0811
46.0789
46.0768
46.0746
46.0725
46.0703
46.0682
46.066
46.0639
46.0617
46.0596
46.0574
46.0553
46.0531
46.051
46.0488
46.0467
46.0446
46.0424
46.0403
46.0381
46.036
46.0338
46.0317
46.0296
46.0274
46.0253
46.0231
46.021
46.0188
46.0167
46.0146
46.0124
46.0103
46.0082
46.006
46.0039
46.0017
45.9996
45.9975
45.9953
45.9932
45.9911
45.9889
45.9868
45.9846
45.9825
45.9804
45.9782
45.9761
45.974
45.9718
45.9697
45.9676
45.9654
45.9633
45.9612
45.9591
45.9569
45.9548
45.9527
45.9505
45.9484
45.9463
45.9441
45.942
45.9399
45.9378
45.9356
45.9335
45.9314
45.9293
45.9271
45.925
45.9229
45.9207
45.9186
45.9165
45.9144
45.9123
45.9101
45.908
45.9059
45.9038
45.9016
45.8995
45.8974
45.8953
45.8932
45.891
45.8889
45.8868
45.8847
45.8826
45.8804
45.8783
45.8762