# vtk DataFile Version 2.0
vtk output
ASCII
DATASET STRUCTURED_GRID
DIMENSIONS 50 10 30
POINTS 15000 float
0 0 0
1 0 0
2 0 0
3 0 0
4 0 0
5 0 0
6 0 0
7 0 0
8 0 0
9 0 0
10 0 0
11 0 0
12 0 0
13 0 0
14 0 0
15 0 0
16 0 0
17 0 0
18 0 0
19 0 0
20 0 0
21 0 0
22 0 0
23 0 0
24 0 0
25 0 0
26 0 0
27 0 0
28 0 0
29 0 0
30 0 0
31 0 0
32 0 0
33 0 0
34 0 0
35 0 0
36 0 0
37 0 0
38 0 0
39 0 0
40 0 0
41 0 0
42 0 0
43 0 0
44 0 0
45 0 0
46 0 0
47 0 0
48 0 0
49 0 0
0 1 0
1 1 0
2 1 0
3 1 0
4 1 0
5 1 0
6 1 0
7 1 0
8 1 0
9 1 0
10 1 0
11 1 0
12 1 0
13 1 0
14 1 0
15 1 0
16 1 0
17 1 0
18 1 0
19 1 0
20 1 0
21 1 0
22 1 0
23 1 0
24 1 0
25 1 0
26 1 0
27 1 0
28 1 0
29 1 0
30 1 0
31 1 0
32 1 0
33 1 0
34 1 0
35 1 0
36 1 0
37 1 0
38 1 0
39 1 0
40 1 0
41 1 0
42 1 0
43 1 0
44 1 0
45 1 0
46 1 0
47 1 0
48 1 0
49 1 0
0 2 0
1 2 0
2 2 0
3 2 0
4 2 0
5 2 0
6 2 0
7 2 0
8 2 0
9 2 0
10 2 0
11 2 0
12 2 0
13 2 0
14 2 0
15 2 0
16 2 0
17 2 0
18 2 0
19 2 0
20 2 0
21 2 0
22 2 0
23 2 0
24 2 0
25 2 0
26 2 0
27 2 0
28 2 0
29 2 0
30 2 0
31 2 0
32 2 0
33 2 0
34 2 0
35 2 0
36 2 0
37 2 0
38 2 0
39 2 0
40 2 0
41 2 0
42 2 0
43 2 0
44 2 0
45 2 0
46 2 0
47 2 0
48 2 0
49 2 0
0 3 0
1 3 0
2 3 0
3 3 0
4 3 0
5 3 0
6 3 0
7 3 0
8 3 0
9 3 0
10 3 0
11 3 0
12 3 0
13 3 0
14 3 0
15 3 0
16 3 0
17 3 0
18 3 0
19 3 0
20 3 0
21 3 0
22 3 0
23 3 0
24 3 0
25 3 0
26 3 0
27 3 0
28 3 0
29 3 0
30 3 0
31 3 0
32 3 0
33 3 0
34 3 0
35 3 0
36 3 0
37 3 0
38 3 0
39 3 0
40 3 0
41 3 0
42 3 0
43 3 0
44 3 0
45 3 0
46 3 0
47 3 0
48 3 0
49 3 0
0 4 0
1 4 0
2 4 0
3 4 0
4 4 0
5 4 0
6 4 0
7 4 0
8 4 0
9 4 0
10 4 0
11 4 0
12 4 0
13 4 0
14 4 0
15 4 0
16 4 0
17 4 0
18 4 0
19 4 0
20 4 0
21 4 0
22 4 0
23 4 0
24 4 0
25 4 0
26 4 0
27 4 0
28 4 0
29 4 0
30 4 0
31 4 0
32 4 0
33 4 0
34 4 0
35 4 0
36 4 0
37 4 0
38 4 0
39 4 0
40 4 0
41 4 0
42 4 0
43 4 0
44 4 0
45 4 0
46 4 0
47 4 0
48 4 0
49 4 0
0 5 0
1 5 0
2 5 0
3 5 0
4 5 0
5 5 0
6 5 0
7 5 0
8 5 0
9 5 0
10 5 0
11 5 0
12 5 0
13 5 0
14 5 0
15 5 0
16 5 0
17 5 0
18 5 0
19 5 0
20 5 0
21 5 0
22 5 0
23 5 0
24 5 0
25 5 0
26 5 0
27 5 0
28 5 0
29 5 0
30 5 0
31 5 0
32 5 0
33 5 0
34 5 0
35 5 0
36 5 0
37 5 0
38 5 0
39 5 0
40 5 0
41 5 0
42 5 0
43 5 0
44 5 0
45 5 0
46 5 0
47 5 0
48 5 0
49 5 0
0 6 0
1 6 0
2 6 0
3 6 0
4 6 0
5 6 0
6 6 0
7 6 0
8 6 0
9 6 0
10 6 0
11 6 0
12 6 0
13 6 0
14 6 0
15 6 0
16 6 0
17 6 0
18 6 0
19 6 0
20 6 0
21 6 0
22 6 0
23 6 0
24 6 0
25 6 0
26 6 0
27 6 0
28 6 0
29 6 0
30 6 0
31 6 0
32 6 0
33 6 0
34 6 0
35 6 0
36 6 0
37 6 0
38 6 0
39 6 0
40 6 0
41 6 0
42 6 0
43 6 0
44 6 0
45 6 0
46 6 0
47 6 0
48 6 0
49 6 0
0 7 0
1 7 0
2 7 0
3 7 0
4 7 0
5 7 0
6 7 0
7 7 0
8 7 0
9 7 0
10 7 0
11 7 0
12 7 0
13 7 0
14 7 0
15 7 0
16 7 0
17 7 0
18 7 0
19 7 0
20 7 0
21 7 0
22 7 0
23 7 0
24 7 0
25 7 0
26 7 0
27 7 0
28 7 0
29 7 0
30 7 0
31 7 0
32 7 0
33 7 0
34 7 0
35 7 0
36 7 0
37 7 0
38 7 0
39 7 0
40 7 0
41 7 0
42 7 0
43 7 0
44 7 0
45 7 0
46 7 0
47 7 0
48 7 0
49 7 0
0 8 0
1 8 0
2 8 0
3 8 0
4 8 0
5 8 0
6 8 0
7 8 0
8 8 0
9 8 0
10 8 0
11 8 0
12 8 0
13 8 0
14 8 0
15 8 0
16 8 0
17 8 0
18 8 0
19 8 0
20 8 0
21 8 0
22 8 0
23 8 0
24 8 0
25 8 0
26 8 0
27 8 0
28 8 0
29 8 0
30 8 0
31 8 0
32 8 0
33 8 0
34 8 0
35 8 0
36 8 0
37 8 0
38 8 0
39 8 0
40 8 0
41 8 0
42 8 0
43 8 0
44 8 0
45 8 0
46 8 0
47 8 0
48 8 0
49 8 0
0 9 0
1 9 0
2 9 0
3 9 0
4 9 0
5 9 0
6 9 0
7 9 0
8 9 0
9 9 0
10 9 0
11 9 0
12 9 0
13 9 0
14 9 0
15 9 0
16 9 0
17 9 0
18 9 0
19 9 0
20 9 0
21 9 0
22 9 0
23 9 0
24 9 0
25 9 0
26 9 0
27 9 0
28 9 0
29 9 0
30 9 0
31 9 0
32 9 0
33 9 0
34 9 0
35 9 0
36 9 0
37 9 0
38 9 0
39 9 0
40 9 0
41 9 0
42 9 0
43 9 0
44 9 0
45 9 0
46 9 0
47 9 0
48 9 0
49 9 0
0 0 1
1 0 1
2 0 1
3 0 1
4 0 1
5 0 1
6 0 1
7 0 1
8 0 1
9 0 1
10 0 1
11 0 1
12 0 1
13 0 1
14 0 1
15 0 1
16 0 1
17 0 1
18 0 1
19 0 1
20 0 1
21 0 1
22 0 1
23 0 1
24 0 1
25 0 1
26 0 1
27 0 1
28 0 1
29 0 1
30 0 1
31 0 1
32 0 1
33 0 1
34 0 1
35 0 1
36 0 1
37 0 1
38 0 1
39 0 1
40 0 1
41 0 1
42 0 1
43 0 1
44 0 1
45 0 1
46 0 1
47 0 1
48 0 1
49 0 1
0 1 1
1 1 1
2 1 1
3 1 1
4 1 1
5 1 1
6 1 1
7 1 1
8 1 1
9 1 1
10 1 1
11 1 1
12 1 1
13 1 1
14 1 1
15 1 1
16 1 1
17 1 1
18 1 1
19 1 1
20 1 1
21 1 1
22 1 1
23 1 1
24 1 1
25 1 1
26 1 1
27 1 1
28 1 1
29 1 1
30 1 1
31 1 1
32 1 1
33 1 1
34 1 1
35 1 1
36 1 1
37 1 1
38 1 1
39 1 1
40 1 1
41 1 1
42 1 1
43 1 1
44 1 1
45 1 1
46 1 1
47 1 1
48 1 1
49 1 1
0 2 1
1 2 1
2 2 1
3 2 1
4 2 1
5 2 1
6 2 1
7 2 1
8 2 1
9 2 1
10 2 1
11 2 1
12 2 1
13 2 1
14 2 1
15 2 1
16 2 1
17 2 1
18 2 1
19 2 1
20 2 1
21 2 1
22 2 1
23 2 1
24 2 1
25 2 1
26 2 1
27 2 1
28 2 1
29 2 1
30 2 1
31 2 1
32 2 1
33 2 1
34 2 1
35 2 1
36 2 1
37 2 1
38 2 1
39 2 1
40 2 1
41 2 1
42 2 1
43 2 1
44 2 1
45 2 1
46 2 1
47 2 1
48 2 1
49 2 1
0 3 1
1 3 1
2 3 1
3 3 1
4 3 1
5 3 1
6 3 1
7 3 1
8 3 1
9 3 1
10 3 1
11 3 1
12 3 1
13 3 1
14 3 1
15 3 1
16 3 1
17 3 1
18 3 1
19 3 1
20 3 1
21 3 1
22 3 1
23 3 1
24 3 1
25 3 1
26 3 1
27 3 1
28 3 1
29 3 1
30 3 1
31 3 1
32 3 1
33 3 1
34 3 1
35 3 1
36 3 1
37 3 1
38 3 1
39 3 1
40 3 1
41 3 1
42 3 1
43 3 1
44 3 1
45 3 1
46 3 1
47 3 1
48 3 1
49 3 1
0 4 1
1 4 1
2 4 1
3 4 1
4 4 1
5 4 1
6 4 1
7 4 1
8 4 1
9 4 1
10 4 1
11 4 1
12 4 1
13 4 1
14 4 1
15 4 1
16 4 1
17 4 1
18 4 1
19 4 1
20 4 1
21 4 1
22 4 1
23 4 1
24 4 1
25 4 1
26 4 1
27 4 1
28 4 1
29 4 1
30 4 1
31 4 1
32 4 1
33 4 1
34 4 1
35 4 1
36 4 1
37 4 1
38 4 1
39 4 1
40 4 1
41 4 1
42 4 1
43 4 1
44 4 1
45 4 1
46 4 1
47 4 1
48 4 1
49 4 1
0 5 1
1 5 1
2 5 1
3 5 1
4 5 1
5 5 1
6 5 1
7 5 1
8 5 1
9 5 1
10 5 1
11 5 1
12 5 1
13 5 1
14 5 1
15 5 1
16 5 1
17 5 1
18 5 1
19 5 1
20 5 1
21 5 1
22 5 1
23 5 1
24 5 1
25 5 1
26 5 1
27 5 1
28 5 1
29 5 1
30 5 1
31 5 1
32 5 1
33 5 1
34 5 1
35 5 1
36 5 1
37 5 1
38 5 1
39 5 1
40 5 1
41 5 1
42 5 1
43 5 1
44 5 1
45 5 1
46 5 1
47 5 1
48 5 1
49 5 1
0 6 1
1 6 1
2 6 1
3 6 1
4 6 1
5 6 1
6 6 1
7 6 1
8 6 1
9 6 1
10 6 1
11 6 1
12 6 1
13 6 1
14 6 1
15 6 1
16 6 1
17 6 1
18 6 1
19 6 1
20 6 1
21 6 1
22 6 1
23 6 1
24 6 1
25 6 1
26 6 1
27 6 1
28 6 1
29 6 1
30 6 1
31 6 1
32 6 1
33 6 1
34 6 1
35 6 1
36 6 1
37 6 1
38 6 1
39 6 1
40 6 1
41 6 1
42 6 1
43 6 1
44 6 1
45 6 1
46 6 1
47 6 1
48 6 1
49 6 1
0 7 1
1 7 1
2 7 1
3 7 1
4 7 1
5 7 1
6 7 1
7 7 1
8 7 1
9 7 1
10 7 1
11 7 1
12 7 1
13 7 1
14 7 1
15 7 1
16 7 1
17 7 1
18 7 1
19 7 1
20 7 1
21 7 1
22 7 1
23 7 1
24 7 1
25 7 1
26 7 1
27 7 1
28 7 1
29 7 1
30 7 1
31 7 1
32 7 1
33 7 1
34 7 1
35 7 1
36 7 1
37 7 1
38 7 1
39 7 1
40 7 1
41 7 1
42 7 1
43 7 1
44 7 1
45 7 1
46 7 1
47 7 1
48 7 1
49 7 1
0 8 1
1 8 1
2 8 1
3 8 1
4 8 1
5 8 1
6 8 1
7 8 1
8 8 1
9 8 1
10 8 1
11 8 1
12 8 1
13 8 1
14 8 1
15 8 1
16 8 1
17 8 1
18 8 1
19 8 1
20 8 1
21 8 1
22 8 1
23 8 1
24 8 1
25 8 1
26 8 1
27 8 1
28 8 1
29 8 1
30 8 1
31 8 1
32 8 1
33 8 1
34 8 1
35 8 1
36 8 1
37 8 1
38 8 1
39 8 1
40 8 1
41 8 1
42 8 1
43 8 1
44 8 1
45 8 1
46 8 1
47 8 1
48 8 1
49 8 1
0 9 1
1 9 1
2 9 1
3 9 1
4 9 1
5 9 1
6 9 1
7 9 1
8 9 1
9 9 1
10 9 1
11 9 1
12 9 1
13 9 1
14 9 1
15 9 1
16 9 1
17 9 1
18 9 1
19 9 1
20 9 1
21 9 1
22 9 1
23 9 1
24 9 1
25 9 1
26 9 1
27 9 1
28 9 1
29 9 1
30 9 1
31 9 1
32 9 1
33 9 1
34 9 1
35 9 1
36 9 1
37 9 1
38 9 1
39 9 1
40 9 1
41 9 1
42 9 1
43 9 1
44 9 1
45 9 1
46 9 1
47 9 1
48 9 1
49 9 1
0 0 2
1 0 2
2 0 2
3 0 2
4 0 2
5 0 2
6 0 2
7 0 2
8 0 2
9 0 2
10 0 2
11 0 2
12 0 2
13 0 2
14 0 2
15 0 2
16 0 2
17 0 2
18 0 2
19 0 2
20 0 2
21 0 2
22 0 2
23 0 2
24 0 2
25 0 2
26 0 2
27 0 2
28 0 2
29 0 2
30 0 2
31 0 2
32 0 2
33 0 2
34 0 2
35 0 2
36 0 2
37 0 2
38 0 2
39 0 2
40 0 2
41 0 2
42 0 2
43 0 2
44 0 2
45 0 2
46 0 2
47 0 2
48 0 2
49 0 2
0 1 2
1 1 2
2 1 2
3 1 2
4 1 2
5 1 2
6 1 2
7 1 2
8 1 2
9 1 2
10 1 2
11 1 2
12 1 2
13 1 2
14 1 2
15 1 2
16 1 2
17 1 2
18 1 2
19 1 2
20 1 2
21 1 2
22 1 2
23 1 2
24 1 2
25 1 2
26 1 2
27 1 2
28 1 2
29 1 2
30 1 2
31 1 2
32 1 2
33 1 2
34 1 2
35 1 2
36 1 2
37 1 2
38 1 2
39 1 2
40 1 2
41 1 2
42 1 2
43 1 2
44 1 2
45 1 2
46 1 2
47 1 2
48 1 2
49 1 2
0 2 2
1 2 2
2 2 2
3 2 2
4 2 2
5 2 2
6 2 2
7 2 2
8 2 2
9 2 2
10 2 2
11 2 2
12 2 2
13 2 2
14 2 2
15 2 2
16 2 2
17 2 2
18 2 2
19 2 2
20 2 2
21 2 2
22 2 2
23 2 2
24 2 2
25 2 2
26 2 2
27 2 2
28 2 2
29 2 2
30 2 2
31 2 2
32 2 2
33 2 2
34 2 2
35 2 2
36 2 2
37 2 2
38 2 2
39 2 2
40 2 2
41 2 2
42 2 2
43 2 2
44 2 2
45 2 2
46 2 2
47 2 2
48 2 2
49 2 2
0 3 2
1 3 2
2 3 2
3 3 2
4 3 2
5 3 2
6 3 2
7 3 2
8 3 2
9 3 2
10 3 2
11 3 2
12 3 2
13 3 2
14 3 2
15 3 2
16 3 2
17 3 2
18 3 2
19 3 2
20 3 2
21 3 2
22 3 2
23 3 2
24 3 2
25 3 2
26 3 2
27 3 2
28 3 2
29 3 2
30 3 2
31 3 2
32 3 2
33 3 2
34 3 2
35 3 2
36 3 2
37 3 2
38 3 2
39 3 2
40 3 2
41 3 2
42 3 2
43 3 2
44 3 2
45 3 2
46 3 2
47 3 2
48 3 2
49 3 2
0 4 2
1 4 2
2 4 2
3 4 2
4 4 2
5 4 2
6 4 2
7 4 2
8 4 2
9 4 2
10 4 2
11 4 2
12 4 2
13 4 2
14 4 2
15 4 2
16 4 2
17 4 2
18 4 2
19 4 2
20 4 2
21 4 2
22 4 2
23 4 2
24 4 2
25 4 2
26 4 2
27 4 2
28 4 2
29 4 2
30 4 2
31 4 2
32 4 2
33 4 2
34 4 2
35 4 2
36 4 2
37 4 2
38 4 2
39 4 2
40 4 2
41 4 2
42 4 2
43 4 2
44 4 2
45 4 2
46 4 2
47 4 2
48 4 2
49 4 2
0 5 2
1 5 2
2 5 2
3 5 2
4 5 2
5 5 2
6 5 2
7 5 2
8 5 2
9 5 2
10 5 2
11 5 2
12 5 2
13 5 2
14 5 2
15 5 2
16 5 2
17 5 2
18 5 2
19 5 2
20 5 2
21 5 2
22 5 2
23 5 2
24 5 2
25 5 2
26 5 2
27 5 2
28 5 2
29 5 2
30 5 2
31 5 2
32 5 2
33 5 2
34 5 2
35 5 2
36 5 2
37 5 2
38 5 2
39 5 2
40 5 2
41 5 2
42 5 2
43 5 2
44 5 2
45 5 2
46 5 2
47 5 2
48 5 2
49 5 2
0 6 2
1 6 2
2 6 2
3 6 2
4 6 2
5 6 2
6 6 2
7 6 2
8 6 2
9 6 2
10 6 2
11 6 2
12 6 2
13 6 2
14 6 2
15 6 2
16 6 2
17 6 2
18 6 2
19 6 2
20 6 2
21 6 2
22 6 2
23 6 2
24 6 2
25 6 2
26 6 2
27 6 2
28 6 2
29 6 2
30 6 2
31 6 2
32 6 2
33 6 2
34 6 2
35 6 2
36 6 2
37 6 2
38 6 2
39 6 2
40 6 2
41 6 2
42 6 2
43 6 2
44 6 2
45 6 2
46 6 2
47 6 2
48 6 2
49 6 2
0 7 2
1 7 2
2 7 2
3 7 2
4 7 2
5 7 2
6 7 2
7 7 2
8 7 2
9 7 2
10 7 2
11 7 2
12 7 2
13 7 2
14 7 2
15 7 2
16 7 2
17 7 2
18 7 2
19 7 2
20 7 2
21 7 2
22 7 2
23 7 2
24 7 2
25 7 2
26 7 2
27 7 2
28 7 2
29 7 2
30 7 2
31 7 2
32 7 2
33 7 2
34 7 2
35 7 2
36 7 2
37 7 2
38 7 2
39 7 2
40 7 2
41 7 2
42 7 2
43 7 2
44 7 2
45 7 2
46 7 2
47 7 2
48 7 2
49 7 2
0 8 2
1 8 2
2 8 2
3 8 2
4 8 2
5 8 2
6 8 2
7 8 2
8 8 2
9 8 2
10 8 2
11 8 2
12 8 2
13 8 2
14 8 2
15 8 2
16 8 2
17 8 2
18 8 2
19 8 2
20 8 2
21 8 2
22 8 2
23 8 2
24 8 2
25 8 2
26 8 2
27 8 2
28 8 2
29 8 2
30 8 2
31 8 2
32 8 2
33 8 2
34 8 2
35 8 2
36 8 2
37 8 2
38 8 2
39 8 2
40 8 2
41 8 2
42 8 2
43 8 2
44 8 2
45 8 2
46 8 2
47 8 2
48 8 2
49 8 2
0 9 2
1 9 2
2 9 2
3 9 2
4 9 2
[...]
POINT_DATA 15000
SCALARS sol99 float
LOOKUP_TABLE default
54.8543
54.8512
54.8482
54.8451
54.8421
54.839
54.836
54.8329
54.8299
54.8268
54.8238
54.8207
54.8177
54.8146
54.8116
54.8086
54.8055
54.8025
54.7994
54.7964
54.7934
54.7903
54.7873
54.7842
54.7812
54.7782
54.7751
54.7721
54.769
54.766
54.763
54.7599
54.7569
54.7539
54.7508
54.7478
54.7448
54.7417
54.7387
54.7356
54.7326
54.7296
54.7266
54.7235
54.7205
54.7175
54.7144
54.7114
54.7084
54.7053
54.7023
54.6993
54.6963
54.6932
54.6902
54.6872
54.6841
54.6811
54.6781
54.6751
54.672
54.669
54.666
54.663
54.6599
54.6569
54.6539
54.6509
54.6479
54.6448
54.6418
54.6388
54.6358
54.6328
54.6297
54.6267
54.6237
54.6207
54.6177
54.6146
54.6116
54.6086
54.6056
54.6026
54.5996
54.5965
54.5935
54.5905
54.5875
54.5845
54.5815
54.5785
54.5755
54.5724
54.5694
54.5664
54.5634
54.5604
54.5574
54.5544
54.5514
54.5484
54.5454
54.5423
54.5393
54.5363
54.5333
54.5303
54.5273
54.5243
54.5213
54.5183
54.5153
54.5123
54.5093
54.5063
54.5033
54.5003
54.4973
54.4943
54.4913
54.4883
54.4853
54.4823
54.4793
54.4763
54.4733
54.4703
54.4673
54.4643
54.4613
54.4583
54.4553
54.4523
54.4493
54.4463
54.4433
54.4403
54.4373
54.4343
54.4314
54.4284
54.4254
54.4224
54.4194
54.4164
54.4134
54.4104
54.4074
54.4044
54.4014
54.3985
54.3955
54.3925
54.3895
54.3865
54.3835
54.3805
54.3775
54.3746
54.3716
54.3686
54.3656
54.3626
54.3596
54.3567
54.3537
54.3507
54.3477
54.3447
54.3418
54.3388
54.3358
54.3328
54.3298
54.3269
54.3239
54.3209
54.3179
54.3149
54.312
54.309
54.306
54.303
54.3001
54.2971
54.2941
54.2911
54.2882
54.2852
54.2822
54.2792
54.2763
54.2733
54.2703
54.2674
54.2644
54.2614
54.2585
54.2555
54.2525
54.2495
54.2466
54.2436
54.2406
54.2377
54.2347
54.2317
54.2288
54.2258
54.2229
54.2199
54.2169
54.214
54.211
54.208
54.2051
54.2021
54.1991
54.1962
54.1932
54.1903
54.1873
54.1843
54.1814
54.1784
54.1755
54.1725
54.1696
54.1666
54.1636
54.1607
54.1577
54.1548
54.1518
54.1489
54.1459
54.143
54.14
54.137
54.1341
54.1311
54.1282
54.1252
54.1223
54.1193
54.1164
54.1134
54.1105
54.1075
54.1046
54.1016
54.0987
54.0957
54.0928
54.0898
54.0869
54.084
54.081
54.0781
54.0751
54.0722
54.0692
54.0663
54.0633
54.0604
54.0575
54.0545
54.0516
54.0486
54.0457
54.0427
54.0398
54.0369
54.0339
54.031
54.0281
54.0251
54.0222
54.0192
54.0163
54.0134
54.0104
54.0075
54.0046
54.0016
53.9987
53.9958
53.9928
53.9899
53.987
53.984
53.9811
53.9782
53.9752
53.9723
53.9694
53.9664
53.9635
53.9606
53.9576
53.9547
53.9518
53.9489
53.9459
53.943
53.9401
53.9372
53.9342
53.9313
53.9284
53.9255
53.9225
53.9196
53.9167
53.9138
53.9108
53.9079
53.905
53.9021
53.8991
53.8962
53.8933
53.8904
53.8875
53.8845
53.8816
53.8787
53.8758
53.8729
53.87
53.867
53.8641
53.8612
53.8583
53.8554
53.8525
53.8495
53.8466
53.8437
53.8408
53.8379
53.835
53.8321
53.8292
53.8262
53.8233
53.8204
53.8175
53.8146
53.8117
53.8088
53.8059
53.803
53.8001
53.7972
53.7943
53.7913
53.7884
53.7855
53.7826
53.7797
53.7768
53.7739
53.771
53.7681
53.7652
53.7623
53.7594
53.7565
53.7536
53.7507
53.7478
53.7449
53.742
53.7391
53.7362
53.7333
53.7304
53.7275
53.7246
53.7217
53.7188
53.7159
53.713
53.7101
53.7072
53.7043
53.7014
53.6985
53.6956
53.6928
53.6899
53.687
53.6841
53.6812
53.6783
53.6754
53.6725
53.6696
53.6667
53.6638
53.661
53.6581
53.6552
53.6523
53.6494
53.6465
53.6436
53.6407
53.6379
53.635
53.6321
53.6292
53.6263
53.6234
53.6206
53.6177
53.6148
53.6119
53.609
53.6061
53.6033
53.6004
53.5975
53.5946
53.5917
53.5889
53.586
53.5831
53.5802
53.5774
53.5745
53.5716
53.5687
53.5658
53.563
53.5601
53.5572
53.5543
53.5515
53.5486
53.5457
53.5429
53.54
53.5371
53.5342
53.5314
53.5285
53.5256
53.5228
53.5199
53.517
53.5141
53.5113
53.5084
53.5055
53.5027
53.4998
53.4969
53.4941
53.4912
53.4883
53.4855
53.4826
53.4797
53.4769
53.474
53.4712
53.4683
53.4654
53.4626
53.4597
53.4568
53.454
53.4511
53.4483
53.4454
53.4426
53.4397
53.4368
53.434
53.4311
53.4283
53.4254
53.4225
53.4197
53.4168
53.414
53.4111
53.4083
53.4054
53.4026
53.3997
53.3969
53.394
53.3912
53.3883
53.3855
53.3826
53.3797
53.3769
53.374
53.3712
53.3684
53.3655
53.3627
53.3598
53.357
53.3541
53.3513
53.3484
53.3456
53.3427
53.3399
53.337
53.3342
53.3313
53.3285
53.3257
53.3228
53.32
53.3171
53.3143
53.3115
53.3086
53.3058
53.3029
53.3001
53.2973
53.2944
53.2916
53.2887
53.2859
53.2831
53.2802
53.2774
53.2746
53.2717
53.2689
53.266
53.2632
53.2604
53.2575
53.2547
53.2519
53.249
53.2462
53.2434
53.2406
53.2377
53.2349
53.2321
53.2292
53.2264
53.2236
53.2207
53.2179
53.2151
53.2123
53.2094
53.2066
53.2038
53.201
53.1981
53.1953
53.1925
53.1897
53.1868
53.184
53.1812
53.1784
53.1755
53.1727
53.1699
53.1671
53.1642
53.1614
53.1586
53.1558
53.153
53.1501
53.1473
53.1445
53.1417
53.1389
53.1361
53.1332
53.1304
53.1276
53.1248
53.122
53.1192
53.1164
53.1135
53.1107
53.1079
53.1051
53.1023
53.0995
53.0967
53.0938
53.091
53.0882
53.0854
53.0826
53.0798
53.077
53.0742
53.0714
53.0686
53.0658
53.0629
53.0601
53.0573
53.0545
53.0517
53.0489
53.0461
53.0433
53.0405
53.0377
53.0349
53.0321
53.0293
53.0265
53.0237
53.0209
53.0181
53.0153
53.0125
53.0097
53.0069
53.0041
53.0013
52.9985
52.9957
52.9929
52.9901
52.9873
52.9845
52.9817
52.9789
52.9761
52.9733
52.9705
52.9677
52.9649
52.9622
52.9594
52.9566
52.9538
52.951
52.9482
52.9454
52.9426
52.9398
52.937
52.9342
52.9315
52.9287
52.9259
52.9231
52.9203
52.9175
52.9147
52.9119
52.9092
52.9064
52.9036
52.9008
52.898
52.8952
52.8924
52.8897
52.8869
52.8841
52.8813
52.8785
52.8758
52.873
52.8702
52.8674
52.8646
52.8619
52.8591
52.8563
52.8535
52.8507
52.848
52.8452
52.8424
52.8396
52.8369
52.8341
52.8313
52.8285
52.8258
52.823
52.8202
52.8174
52.8147
52.8119
52.8091
52.8063
52.8036
52.8008
52.798
52.7953
52.7925
52.7897
52.787
52.7842
52.7814
52.7787
52.7759
52.7731
52.7704
52.7676
52.7648
52.7621
52.7593
52.7565
52.7538
52.751
52.7482
52.7455
52.7427
52.7399
52.7372
52.7344
52.7317
52.7289
52.7261
52.7234
52.7206
52.7179
52.7151
52.7123
52.7096
52.7068
52.7041
52.7013
52.6986
52.6958
52.693
52.6903
52.6875
52.6848
52.682
52.6793
52.6765
52.6738
52.671
52.6683
52.6655
52.6628
52.66
52.6572
52.6545
52.6517
52.649
52.6462
52.6435
52.6408
52.638
52.6353
52.6325
52.6298
52.627
52.6243
52.6215
52.6188
52.616
52.6133
52.6105
52.6078
52.6051
52.6023
52.5996
52.5968
52.5941
52.5913
52.5886
52.5859
52.5831
52.5804
52.5776
52.5749
52.5722
52.5694
52.5667
52.5639
52.5612
52.5585
52.5557
52.553
52.5503
52.5475
52.5448
52.5421
52.5393
52.5366
52.5339
52.5311
52.5284
52.5257
52.5229
52.5202
52.5175
52.5147
52.512
52.5093
52.5065
52.5038
52.5011
52.4983
52.4956
52.4929
52.4902
52.4874
52.4847
52.482
52.4793
52.4765
52.4738
52.4711
52.4684
52.4656
52.4629
52.4602
52.4575
52.4547
52.452
52.4493
52.4466
52.4438
52.4411
52.4384
52.4357
52.433
52.4302
52.4275
52.4248
52.4221
52.4194
52.4167
52.4139
52.4112
52.4085
52.4058
52.4031
52.4004
52.3976
52.3949
52.3922
52.3895
52.3868
52.3841
52.3814
52.3787
52.3759
52.3732
52.3705
52.3678
52.3651
52.3624
52.3597
52.357
52.3543
52.3516
52.3488
52.3461
52.3434
52.3407
52.338
52.3353
52.3326
52.3299
52.3272
52.3245
52.3218
52.3191
52.3164
52.3137
52.311
52.3083
52.3056
52.3029
52.3002
52.2975
52.2948
52.2921
52.2894
52.2867
52.284
52.2813
52.2786
52.2759
52.2732
52.2705
52.2678
52.2651
52.2624
52.2597
52.257
52.2543
52.2516
52.2489
52.2462
52.2435
52.2408
52.2381
52.2354
52.2328
52.2301
52.2274
52.2247
52.222
52.2193
52.2166
52.2139
52.2112
52.2085
52.2059
52.2032
52.2005
52.1978
52.1951
52.1924
52.1897
52.1871
52.1844
52.1817
52.179
52.1763
52.1736
52.171
52.1683
52.1656
52.1629
52.1602
52.1575
52.1549
52.1522
52.1495
52.1468
52.1441
52.1415
52.1388
52.1361
52.1334
52.1308
52.1281
52.1254
52.1227
52.12
52.1174
52.1147
52.112
52.1093
52.1067
52.104
52.1013
52.0987
52.096
52.0933
52.0906
52.088
52.0853
52.0826
52.08
52.0773
52.0746
52.0719
52.0693
52.0666
52.0639
52.0613
52.0586
52.0559
52.0533
52.0506
52.0479
52.0453
52.0426
52.0399
52.0373
52.0346
52.032
52.0293
52.0266
52.024
52.0213
52.0186
52.016
52.0133
52.0107
52.008
52.0053
52.0027
52
51.9974
51.9947
51.992
51.9894
51.9867
51.9841
51.9814
51.9788
51.9761
51.9735
51.9708
51.9681
51.9655
51.9628
51.9602
51.9575
51.9549
51.9522
51.9496
51.9469
51.9443
51.9416
51.939
51.9363
51.9337
51.931
51.9284
51.9257
51.9231
51.9204
51.9178
51.9151
51.9125
51.9098
51.9072
51.9045
51.9019
51.8993
51.8966
51.894
51.8913
51.8887
51.886
51.8834
51.8808
51.8781
51.8755
51.8728
51.8702
51.8675
51.8649
51.8623
51.8596
51.857
51.8544
51.8517
51.8491
51.8464
51.8438
51.8412
51.8385
51.8359
51.8333
51.8306
51.828
51.8254
51.8227
51.8201
51.8175
51.8148
51.8122
51.8096
51.8069
51.8043
51.8017
51.799
51.7964
51.7938
51.7911
51.7885
51.7859
51.7833
51.7806
51.778
51.7754
51.7727
51.7701
51.7675
51.7649
51.7622
51.7596
51.757
51.7544
51.7517
51.7491
51.7465
51.7439
51.7413
51.7386
51.736
51.7334
51.7308
51.7281
51.7255
51.7229
51.7203
51.7177
51.7151
51.7124
51.7098
51.7072
51.7046
51.702
51.6993
51.6967
51.6941
51.6915
51.6889
51.6863
51.6837
51.681
51.6784
51.6758
51.6732
51.6706
51.668
51.6654
51.6628
51.6601
51.6575
51.6549
51.6523
51.6497
51.6471
51.6445
51.6419
51.6393
51.6367
51.6341
51.6315
51.6288
51.6262
51.6236
51.621
51.6184
51.6158
51.6132
51.6106
51.608
51.6054
51.6028
51.6002
51.5976
51.595
51.5924
51.5898
51.5872
51.5846
51.582
51.5794
51.5768
51.5742
51.5716
51.569
51.5664
51.5638
51.5612
51.5586
51.556
51.5534
51.5508
51.5482
51.5456
51.543
51.5404
51.5379
51.5353
51.5327
51.5301
51.5275
51.5249
51.5223
51.5197
51.5171
51.5145
51.5119
51.5094
51.5068
51.5042
51.5016
51.499
51.4964
51.4938
51.4912
51.4887
51.4861
51.4835
51.4809
51.4783
51.4757
51.4731
51.4706
51.468
51.4654
51.4628
51.4602
51.4576
51.4551
51.4525
51.4499
51.4473
51.4447
51.4422
51.4396
51.437
51.4344
51.4318
51.4293
51.4267
51.4241
51.4215
51.419
51.4164
51.4138
51.4112
51.4087
51.4061
51.4035
51.4009
51.3984
51.3958
51.3932
51.3906
51.3881
51.3855
51.3829
51.3804
51.3778
51.3752
51.3726
51.3701
51.3675
51.3649
51.3624
51.3598
51.3572
51.3547
51.3521
51.3495
51.347
51.3444
51.3418
51.3393
51.3367
51.3341
51.3316
51.329
51.3265
51.3239
51.3213
51.3188
51.3162
51.3136
51.3111
51.3085
51.306
51.3034
51.3008
51.2983
51.2957
51.2932
51.2906
51.2881
51.2855
51.2829
51.2804
51.2778
51.2753
51.2727
51.2702
51.2676
51.2651
51.2625
51.2599
51.2574
51.2548
51.2523
51.2497
51.2472
51.2446
51.2421
51.2395
51.237
51.2344
51.2319
51.2293
51.2268
51.2242
51.2217
51.2191
51.2166
51.214
51.2115
51.2089
51.2064
51.2039
51.2013
51.1988
51.1962
51.1937
51.1911
51.1886
51.186
51.1835
51.181
51.1784
51.1759
51.1733
51.1708
51.1683
51.1657
51.1632
51.1606
51.1581
51.1556
51.153
51.1505
51.1479
51.1454
51.1429
51.1403
51.1378
51.1353
51.1327
51.1302
51.1277
51.1251
51.1226
51.1201
51.1175
51.115
51.1125
51.1099
51.1074
51.1049
51.1023
51.0998
51.0973
51.0947
51.0922
51.0897
51.0872
51.0846
51.0821
51.0796
51.077
51.0745
51.072
51.0695
51.0669
51.0644
51.0619
51.0594
51.0568
51.0543
51.0518
51.0493
51.0468
51.0442
51.0417
51.0392
51.0367
51.0341
51.0316
51.0291
51.0266
51.0241
51.0215
51.019
51.0165
51.014
51.0115
51.009
51.0064
51.0039
51.0014
50.9989
50.9964
50.9939
50.9913
50.9888
50.9863
50.9838
50.9813
50.9788
50.9763
50.9737
50.9712
50.9687
50.9662
50.9637
50.9612
50.9587
50.9562
50.9537
50.9512
50.9486
50.9461
50.9436
50.9411
50.9386
50.9361
50.9336
50.9311
50.9286
50.9261
50.9236
50.9211
50.9186
50.9161
50.9136
50.9111
50.9086
50.9061
50.9036
50.9011
50.8986
50.8961
50.8936
50.8911
50.8886
50.8861
50.8836
50.8811
50.8786
50.8761
50.8736
50.8711
50.8686
50.8661
50.8636
50.8611
50.8586
50.8561
50.8536
50.8511
50.8486
50.8461
50.8436
50.8411
50.8386
50.8361
50.8336
50.8312
50.8287
50.8262
50.8237
50.8212
50.8187
50.8162
50.8137
50.8112
50.8087
50.8063
50.8038
50.8013
50.7988
50.7963
50.7938
50.7913
50.7889
50.7864
50.7839
50.7814
50.7789
50.7764
50.7739
50.7715
50.769
50.7665
50.764
50.7615
50.7591
50.7566
50.7541
50.7516
50.7491
50.7467
50.7442
50.7417
50.7392
50.7367
50.7343
50.7318
50.7293
50.7268
50.7244
50.7219
50.7194
50.7169
50.7145
50.712
50.7095
50.707
50.7046
50.7021
50.6996
50.6972
50.6947
50.6922
50.6897
50.6873
50.6848
50.6823
50.6799
50.6774
50.6749
50.6725
50.67
50.6675
50.665
50.6626
50.6601
50.6576
50.6552
50.6527
50.6503
50.6478
50.6453
50.6429
50.6404
50.6379
50.6355
50.633
50.6305
50.6281
50.6256
50.6232
50.6207
50.6182
50.6158
50.6133
50.6109
50.6084
50.6059
50.6035
50.601
50.5986
50.5961
50.5937
50.5912
50.5887
50.5863
50.5838
50.5814
50.5789
50.5765
50.574
50.5716
50.5691
50.5667
50.5642
50.5617
50.5593
50.5568
50.5544
50.5519
50.5495
50.547
50.5446
50.5421
50.5397
50.5372
50.5348
50.5324
50.5299
50.5275
50.525
50.5226
50.5201
50.5177
50.5152
50.5128
50.5103
50.5079
50.5054
50.503
50.5006
50.4981
50.4957
50.4932
50.4908
50.4884
50.4859
50.4835
50.481
50.4786
50.4762
50.4737
50.4713
50.4688
50.4664
50.464
50.4615
50.4591
50.4566
50.4542
50.4518
50.4493
50.4469
50.4445
50.442
50.4396
50.4372
50.4347
50.4323
50.4299
50.4274
50.425
50.4226
50.4201
50.4177
50.4153
50.4128
50.4104
50.408
50.4056
50.4031
50.4007
50.3983
50.3958
50.3934
50.391
50.3886
50.3861
50.3837
50.3813
50.3789
50.3764
50.374
50.3716
50.3692
50.3667
50.3643
50.3619
50.3595
50.3571
50.3546
50.3522
50.3498
50.3474
50.3449
50.3425
50.3401
50.3377
50.3353
50.3329
50.3304
50.328
50.3256
50.3232
50.3208
50.3184
50.3159
50.3135
50.3111
50.3087
50.3063
50.3039
50.3014
50.299
50.2966
50.2942
50.2918
50.2894
50.287
50.2846
50.2822
50.2797
50.2773
50.2749
50.2725
50.2701
50.2677
50.2653
50.2629
50.2605
50.2581
50.2557
50.2532
50.2508
50.2484
50.246
50.2436
50.2412
50.2388
50.2364
50.234
50.2316
50.2292
50.2268
50.2244
50.222
50.2196
50.2172
50.2148
50.2124
50.21
50.2076
50.2052
50.2028
50.2004
50.198
50.1956
50.1932
50.1908
50.1884
50.186
50.1836
50.1812
50.1788
50.1764
50.174
50.1716
50.1692
50.1668
50.1645
50.1621
50.1597
50.1573
50.1549
50.1525
50.1501
50.1477
50.1453
50.1429
50.1405
50.1381
50.1358
50.1334
50.131
50.1286
50.1262
50.1238
50.1214
50.119
50.1167
50.1143
50.1119
50.1095
50.1071
50.1047
50.1023
50.1
50.0976
50.0952
50.0928
50.0904
50.0881
50.0857
50.0833
50.0809
50.0785
50.0761
50.0738
50.0714
50.069
50.0666
50.0643
50.0619
50.0595
50.0571
50.0547
50.0524
50.05
50.0476
50.0452
50.0429
50.0405
50.0381
50.0357
50.0334
50.031
50.0286
50.0262
50.0239
50.0215
50.0191
50.0168
50.0144
50.012
50.0096
50.0073
50.0049
50.0025
50.0002
49.9978
49.9954
49.9931
49.9907
49.9883
49.986
49.9836
49.9812
49.9789
49.9765
49.9741
49.9718
49.9694
49.967
49.9647
49.9623
49.9599
49.9576
49.9552
49.9529
49.9505
49.9481
49.9458
49.9434
49.9411
49.9387
49.9363
49.934
49.9316
49.9293
49.9269
49.9245
49.9222
49.9198
49.9175
49.9151
49.9128
49.9104
49.9081
49.9057
49.9033
49.901
49.8986
49.8963
49.8939
49.8916
49.8892
49.8869
49.8845
49.8822
49.8798
49.8775
49.8751
49.8728
49.8704
49.8681
49.8657
49.8634
49.861
49.8587
49.8563
49.854
49.8516
49.8493
49.8469
49.8446
49.8423
49.8399
49.8376
49.8352
49.8329
49.8305
49.8282
49.8258
49.8235
49.8212
49.8188
49.8165
49.8141
49.8118
49.8095
49.8071
49.8048
49.8024
49.8001
49.7978
49.7954
49.7931
49.7907
49.7884
49.7861
49.7837
49.7814
49.7791
49.7767
49.7744
49.7721
49.7697
49.7674
49.7651
49.7627
49.7604
49.7581
49.7557
49.7534
49.7511
49.7487
49.7464
49.7441
49.7417
49.7394
49.7371
49.7347
49.7324
49.7301
49.7278
49.7254
49.7231
49.7208
49.7185
49.7161
49.7138
49.7115
49.7092
49.7068
49.7045
49.7022
49.6999
49.6975
49.6952
49.6929
49.6906
49.6882
49.6859
49.6836
49.6813
49.679
49.6766
49.6743
49.672
49.6697
49.6674
49.665
49.6627
49.6604
49.6581
49.6558
49.6535
49.6511
49.6488
49.6465
49.6442
49.6419
49.6396
49.6372
49.6349
49.6326
49.6303
49.628
49.6257
49.6234
49.6211
49.6187
49.6164
49.6141
49.6118
49.6095
49.6072
49.6049
49.6026
49.6003
49.598
49.5956
49.5933
49.591
49.5887
49.5864
49.5841
49.5818
49.5795
49.5772
49.5749
49.5726
49.5703
49.568
49.5657
49.5634
49.5611
49.5588
49.5565
49.5542
49.5519
49.5496
49.5473
49.545
49.5427
49.5404
49.5381
49.5358
49.5335
49.5312
49.5289
49.5266
49.5243
49.522
49.5197
49.5174
49.5151
49.5128
49.5105
49.5082
49.5059
49.5036
49.5013
49.499
49.4967
49.4944
49.4921
49.4899
49.4876
49.4853
49.483
49.4807
49.4784
49.4761
49.4738
49.4715
49.4692
49.467
49.4647
49.4624
49.4601
49.4578
49.4555
49.4532
49.4509
49.4487
49.4464
49.4441
49.4418
49.4395
49.4372
49.4349
49.4327
49.4304
49.4281
49.4258
49.4235
49.4213
49.419
49.4167
49.4144
49.4121
49.4099
49.4076
49.4053
49.403
49.4007
49.3985
49.3962
49.3939
49.3916
49.3893
49.3871
49.3848
49.3825
49.3802
49.378
49.3757
49.3734
49.3711
49.3689
49.3666
49.3643
49.3621
49.3598
49.3575
49.3552
49.353
49.3507
49.3484
49.3462
49.3439
49.3416
49.3394
49.3371
49.3348
49.3325
49.3303
49.328
49.3257
49.3235
49.3212
49.3189
49.3167
49.3144
49.3121
49.3099
49.3076
49.3054
49.3031
49.3008
49.2986
49.2963
49.294
49.2918
49.2895
49.2873
49.285
49.2827
49.2805
49.2782
49.276
49.2737
49.2714
49.2692
49.2669
49.2647
49.2624
49.2602
49.2579
49.2556
49.2534
49.2511
49.2489
49.2466
49.2444
49.2421
49.2399
49.2376
49.2354
49.2331
49.2308
49.2286
49.2263
49.2241
49.2218
49.2196
49.2173
49.2151
49.2128
49.2106
49.2083
49.2061
49.2038
49.2016
49.1993
49.1971
49.1949
49.1926
49.1904
49.1881
49.1859
49.1836
49.1814
49.1791
49.1769
49.1746
49.1724
49.1702
49.1679
49.1657
49.1634
49.1612
49.159
49.1567
49.1545
49.1522
49.15
49.1477
49.1455
49.1433
49.141
49.1388
49.1366
49.1343
49.1321
49.1298
49.1276
49.1254
49.1231
49.1209
49.1187
49.1164
49.1142
49.112
49.1097
49.1075
49.1053
49.103
49.1008
49.0986
49.0963
49.0941
49.0919
49.0896
49.0874
49.0852
49.083
49.0807
49.0785
49.0763
49.074
49.0718
49.0696
49.0674
49.0651
49.0629
49.0607
49.0584
49.0562
49.054
49.0518
49.0495
49.0473
49.0451
49.0429
49.0407
49.0384
49.0362
49.034
49.0318
49.0295
49.0273
49.0251
49.0229
49.0207
49.0184
49.0162
49.014
49.0118
49.0096
49.0073
49.0051
49.0029
49.0007
48.9985
48.9963
48.994
48.9918
48.9896
48.9874
48.9852
48.983
48.9808
48.9785
48.9763
48.9741
48.9719
48.9697
48.9675
48.9653
48.9631
48.9609
48.9586
48.9564
48.9542
48.952
48.9498
48.9476
48.9454
48.9432
48.941
48.9388
48.9366
48.9343
48.9321
48.9299
48.9277
48.9255
48.9233
48.9211
48.9189
48.9167
48.9145
48.9123
48.9101
48.9079
48.9057
48.9035
48.9013
48.8991
48.8969
48.8947
48.8925
48.8903
48.8881
48.8859
48.8837
48.8815
48.8793
48.8771
48.8749
48.8727
48.8705
48.8683
48.8661
48.8639
48.8617
48.8595
48.8573
48.8551
48.8529
48.8508
48.8486
48.8464
48.8442
48.842
48.8398
48.8376
48.8354
48.8332
48.831
48.8288
48.8266
48.8245
48.8223
48.8201
48.8179
48.8157
48.8135
48.8113
48.8091
48.807
48.8048
48.8026
48.8004
48.7982
48.796
48.7938
48.7917
48.7895
48.7873
48.7851
48.7829
48.7807
48.7786
48.7764
48.7742
48.772
48.7698
48.7676
48.7655
48.7633
48.7611
48.7589
48.7568
48.7546
48.7524
48.7502
48.748
48.7459
48.7437
48.7415
48.7393
48.7372
48.735
48.7328
48.7306
48.7285
48.7263
48.7241
48.7219
48.7198
48.7176
48.7154
48.7132
48.7111
48.7089
48.7067
48.7046
48.7024
48.7002
48.698
48.6959
48.6937
48.6915
48.6894
48.6872
48.685
48.6829
48.6807
48.6785
48.6764
48.6742
48.672
48.6699
48.6677
48.6655
48.6634
48.6612
48.6591
48.6569
48.6547
48.6526
48.6504
48.6482
48.6461
48.6439
48.6418
48.6396
48.6374
48.6353
48.6331
48.631
48.6288
48.6266
48.6245
48.6223
48.6202
48.618
48.6159
48.6137
48.6115
48.6094
48.6072
48.6051
48.6029
48.6008
48.5986
48.5965
48.5943
48.5921
48.59
48.5878
48.5857
48.5835
48.5814
48.5792
48.5771
48.5749
48.5728
48.5706
48.5685
48.5663
48.5642
48.562
48.5599
48.5577
48.5556
48.5535
48.5513
48.5492
48.547
48.5449
48.5427
48.5406
48.5384
48.5363
48.5341
48.532
48.5299
48.5277
48.5256
48.5234
48.5213
48.5191
48.517
48.5149
48.5127
48.5106
48.5084
48.5063
48.5042
48.502
48.4999
48.4978
48.4956
48.4935
48.4913
48.4892
48.4871
48.4849
48.4828
48.4807
48.4785
48.4764
48.4743
48.4721
48.47
48.4679
48.4657
48.4636
48.4615
48.4593
48.4572
48.4551
48.4529
48.4508
48.4487
48.4465
48.4444
48.4423
48.4401
48.438
48.4359
48.4338
48.4316
48.4295
48.4274
48.4253
48.4231
48.421
48.4189
48.4168
48.4146
48.4125
48.4104
48.4083
48.4061
48.404
48.4019
48.3998
48.3976
48.3955
48.3934
48.3913
48.3892
48.387
48.3849
48.3828
48.3807
48.3786
48.3764
48.3743
48.3722