# vtk DataFile Version 2.0
vtk output
ASCII
DATASET STRUCTURED_GRID
DIMENSIONS 50 10 30
POINTS 15000 float
0 0 0
1 0 0
2 0 0
3 0 0
4 0 0
5 0 0
6 0 0
7 0 0
8 0 0
9 0 0
10 0 0
11 0 0
12 0 0
13 0 0
14 0 0
15 0 0
16 0 0
17 0 0
18 0 0
19 0 0
20 0 0
21 0 0
22 0 0
23 0 0
24 0 0
25 0 0
26 0 0
27 0 0
28 0 0
29 0 0
30 0 0
31 0 0
32 0 0
33 0 0
34 0 0
35 0 0
36 0 0
37 0 0
38 0 0
39 0 0
40 0 0
41 0 0
42 0 0
43 0 0
44 0 0
45 0 0
46 0 0
47 0 0
48 0 0
49 0 0
0 1 0
1 1 0
2 1 0
3 1 0
4 1 0
5 1 0
6 1 0
7 1 0
8 1 0
9 1 0
10 1 0
11 1 0
12 1 0
13 1 0
14 1 0
15 1 0
16 1 0
17 1 0
18 1 0
19 1 0
20 1 0
21 1 0
22 1 0
23 1 0
24 1 0
25 1 0
26 1 0
27 1 0
28 1 0
29 1 0
30 1 0
31 1 0
32 1 0
33 1 0
34 1 0
35 1 0
36 1 0
37 1 0
38 1 0
39 1 0
40 1 0
41 1 0
42 1 0
43 1 0
44 1 0
45 1 0
46 1 0
47 1 0
48 1 0
49 1 0
0 2 0
1 2 0
2 2 0
3 2 0
4 2 0
5 2 0
6 2 0
7 2 0
8 2 0
9 2 0
10 2 0
11 2 0
12 2 0
13 2 0
14 2 0
15 2 0
16 2 0
17 2 0
18 2 0
19 2 0
20 2 0
21 2 0
22 2 0
23 2 0
24 2 0
25 2 0
26 2 0
27 2 0
28 2 0
29 2 0
30 2 0
31 2 0
32 2 0
33 2 0
34 2 0
35 2 0
36 2 0
37 2 0
38 2 0
39 2 0
40 2 0
41 2 0
42 2 0
43 2 0
44 2 0
45 2 0
46 2 0
47 2 0
48 2 0
49 2 0
0 3 0
1 3 0
2 3 0
3 3 0
4 3 0
5 3 0
6 3 0
7 3 0
8 3 0
9 3 0
10 3 0
11 3 0
12 3 0
13 3 0
14 3 0
15 3 0
16 3 0
17 3 0
18 3 0
19 3 0
20 3 0
21 3 0
22 3 0
23 3 0
24 3 0
25 3 0
26 3 0
27 3 0
28 3 0
29 3 0
30 3 0
31 3 0
32 3 0
33 3 0
34 3 0
35 3 0
36 3 0
37 3 0
38 3 0
39 3 0
40 3 0
41 3 0
42 3 0
43 3 0
44 3 0
45 3 0
46 3 0
47 3 0
48 3 0
49 3 0
0 4 0
1 4 0
2 4 0
3 4 0
4 4 0
5 4 0
6 4 0
7 4 0
8 4 0
9 4 0
10 4 0
11 4 0
12 4 0
13 4 0
14 4 0
15 4 0
16 4 0
17 4 0
18 4 0
19 4 0
20 4 0
21 4 0
22 4 0
23 4 0
24 4 0
25 4 0
26 4 0
27 4 0
28 4 0
29 4 0
30 4 0
31 4 0
32 4 0
33 4 0
34 4 0
35 4 0
36 4 0
37 4 0
38 4 0
39 4 0
40 4 0
41 4 0
42 4 0
43 4 0
44 4 0
45 4 0
46 4 0
47 4 0
48 4 0
49 4 0
0 5 0
1 5 0
2 5 0
3 5 0
4 5 0
5 5 0
6 5 0
7 5 0
8 5 0
9 5 0
10 5 0
11 5 0
12 5 0
13 5 0
14 5 0
15 5 0
16 5 0
17 5 0
18 5 0
19 5 0
20 5 0
21 5 0
22 5 0
23 5 0
24 5 0
25 5 0
26 5 0
27 5 0
28 5 0
29 5 0
30 5 0
31 5 0
32 5 0
33 5 0
34 5 0
35 5 0
36 5 0
37 5 0
38 5 0
39 5 0
40 5 0
41 5 0
42 5 0
43 5 0
44 5 0
45 5 0
46 5 0
47 5 0
48 5 0
49 5 0
0 6 0
1 6 0
2 6 0
3 6 0
4 6 0
5 6 0
6 6 0
7 6 0
8 6 0
9 6 0
10 6 0
11 6 0
12 6 0
13 6 0
14 6 0
15 6 0
16 6 0
17 6 0
18 6 0
19 6 0
20 6 0
21 6 0
22 6 0
23 6 0
24 6 0
25 6 0
26 6 0
27 6 0
28 6 0
29 6 0
30 6 0
31 6 0
32 6 0
33 6 0
34 6 0
35 6 0
36 6 0
37 6 0
38 6 0
39 6 0
40 6 0
41 6 0
42 6 0
43 6 0
44 6 0
45 6 0
46 6 0
47 6 0
48 6 0
49 6 0
0 7 0
1 7 0
2 7 0
3 7 0
4 7 0
5 7 0
6 7 0
7 7 0
8 7 0
9 7 0
10 7 0
11 7 0
12 7 0
13 7 0
14 7 0
15 7 0
16 7 0
17 7 0
18 7 0
19 7 0
20 7 0
21 7 0
22 7 0
23 7 0
24 7 0
25 7 0
26 7 0
27 7 0
28 7 0
29 7 0
30 7 0
31 7 0
32 7 0
33 7 0
34 7 0
35 7 0
36 7 0
37 7 0
38 7 0
39 7 0
40 7 0
41 7 0
42 7 0
43 7 0
44 7 0
45 7 0
46 7 0
47 7 0
48 7 0
49 7 0
0 8 0
1 8 0
2 8 0
3 8 0
4 8 0
5 8 0
6 8 0
7 8 0
8 8 0
9 8 0
10 8 0
11 8 0
12 8 0
13 8 0
14 8 0
15 8 0
16 8 0
17 8 0
18 8 0
19 8 0
20 8 0
21 8 0
22 8 0
23 8 0
24 8 0
25 8 0
26 8 0
27 8 0
28 8 0
29 8 0
30 8 0
31 8 0
32 8 0
33 8 0
34 8 0
35 8 0
36 8 0
37 8 0
38 8 0
39 8 0
40 8 0
41 8 0
42 8 0
43 8 0
44 8 0
45 8 0
46 8 0
47 8 0
48 8 0
49 8 0
0 9 0
1 9 0
2 9 0
3 9 0
4 9 0
5 9 0
6 9 0
7 9 0
8 9 0
9 9 0
10 9 0
11 9 0
12 9 0
13 9 0
14 9 0
15 9 0
16 9 0
17 9 0
18 9 0
19 9 0
20 9 0
21 9 0
22 9 0
23 9 0
24 9 0
25 9 0
26 9 0
27 9 0
28 9 0
29 9 0
30 9 0
31 9 0
32 9 0
33 9 0
34 9 0
35 9 0
36 9 0
37 9 0
38 9 0
39 9 0
40 9 0
41 9 0
42 9 0
43 9 0
44 9 0
45 9 0
46 9 0
47 9 0
48 9 0
49 9 0
0 0 1
1 0 1
2 0 1
3 0 1
4 0 1
5 0 1
6 0 1
7 0 1
8 0 1
9 0 1
10 0 1
11 0 1
12 0 1
13 0 1
14 0 1
15 0 1
16 0 1
17 0 1
18 0 1
19 0 1
20 0 1
21 0 1
22 0 1
23 0 1
24 0 1
25 0 1
26 0 1
27 0 1
28 0 1
29 0 1
30 0 1
31 0 1
32 0 1
33 0 1
34 0 1
35 0 1
36 0 1
37 0 1
38 0 1
39 0 1
40 0 1
41 0 1
42 0 1
43 0 1
44 0 1
45 0 1
46 0 1
47 0 1
48 0 1
49 0 1
0 1 1
1 1 1
2 1 1
3 1 1
4 1 1
5 1 1
6 1 1
7 1 1
8 1 1
9 1 1
10 1 1
11 1 1
12 1 1
13 1 1
14 1 1
15 1 1
16 1 1
17 1 1
18 1 1
19 1 1
20 1 1
21 1 1
22 1 1
23 1 1
24 1 1
25 1 1
26 1 1
27 1 1
28 1 1
29 1 1
30 1 1
31 1 1
32 1 1
33 1 1
34 1 1
35 1 1
36 1 1
37 1 1
38 1 1
39 1 1
40 1 1
41 1 1
42 1 1
43 1 1
44 1 1
45 1 1
46 1 1
47 1 1
48 1 1
49 1 1
0 2 1
1 2 1
2 2 1
3 2 1
4 2 1
5 2 1
6 2 1
7 2 1
8 2 1
9 2 1
10 2 1
11 2 1
12 2 1
13 2 1
14 2 1
15 2 1
16 2 1
17 2 1
18 2 1
19 2 1
20 2 1
21 2 1
22 2 1
23 2 1
24 2 1
25 2 1
26 2 1
27 2 1
28 2 1
29 2 1
30 2 1
31 2 1
32 2 1
33 2 1
34 2 1
35 2 1
36 2 1
37 2 1
38 2 1
39 2 1
40 2 1
41 2 1
42 2 1
43 2 1
44 2 1
45 2 1
46 2 1
47 2 1
48 2 1
49 2 1
0 3 1
1 3 1
2 3 1
3 3 1
4 3 1
5 3 1
6 3 1
7 3 1
8 3 1
9 3 1
10 3 1
11 3 1
12 3 1
13 3 1
14 3 1
15 3 1
16 3 1
17 3 1
18 3 1
19 3 1
20 3 1
21 3 1
22 3 1
23 3 1
24 3 1
25 3 1
26 3 1
27 3 1
28 3 1
29 3 1
30 3 1
31 3 1
32 3 1
33 3 1
34 3 1
35 3 1
36 3 1
37 3 1
38 3 1
39 3 1
40 3 1
41 3 1
42 3 1
43 3 1
44 3 1
45 3 1
46 3 1
47 3 1
48 3 1
49 3 1
0 4 1
1 4 1
2 4 1
3 4 1
4 4 1
5 4 1
6 4 1
7 4 1
8 4 1
9 4 1
10 4 1
11 4 1
12 4 1
13 4 1
14 4 1
15 4 1
16 4 1
17 4 1
18 4 1
19 4 1
20 4 1
21 4 1
22 4 1
23 4 1
24 4 1
25 4 1
26 4 1
27 4 1
28 4 1
29 4 1
30 4 1
31 4 1
32 4 1
33 4 1
34 4 1
35 4 1
36 4 1
37 4 1
38 4 1
39 4 1
40 4 1
41 4 1
42 4 1
43 4 1
44 4 1
45 4 1
46 4 1
47 4 1
48 4 1
49 4 1
0 5 1
1 5 1
2 5 1
3 5 1
4 5 1
5 5 1
6 5 1
7 5 1
8 5 1
9 5 1
10 5 1
11 5 1
12 5 1
13 5 1
14 5 1
15 5 1
16 5 1
17 5 1
18 5 1
19 5 1
20 5 1
21 5 1
22 5 1
23 5 1
24 5 1
25 5 1
26 5 1
27 5 1
28 5 1
29 5 1
30 5 1
31 5 1
32 5 1
33 5 1
34 5 1
35 5 1
36 5 1
37 5 1
38 5 1
39 5 1
40 5 1
41 5 1
42 5 1
43 5 1
44 5 1
45 5 1
46 5 1
47 5 1
48 5 1
49 5 1
0 6 1
1 6 1
2 6 1
3 6 1
4 6 1
5 6 1
6 6 1
7 6 1
8 6 1
9 6 1
10 6 1
11 6 1
12 6 1
13 6 1
14 6 1
15 6 1
16 6 1
17 6 1
18 6 1
19 6 1
20 6 1
21 6 1
22 6 1
23 6 1
24 6 1
25 6 1
26 6 1
27 6 1
28 6 1
29 6 1
30 6 1
31 6 1
32 6 1
33 6 1
34 6 1
35 6 1
36 6 1
37 6 1
38 6 1
39 6 1
40 6 1
41 6 1
42 6 1
43 6 1
44 6 1
45 6 1
46 6 1
47 6 1
48 6 1
49 6 1
0 7 1
1 7 1
2 7 1
3 7 1
4 7 1
5 7 1
6 7 1
7 7 1
8 7 1
9 7 1
10 7 1
11 7 1
12 7 1
13 7 1
14 7 1
15 7 1
16 7 1
17 7 1
18 7 1
19 7 1
20 7 1
21 7 1
22 7 1
23 7 1
24 7 1
25 7 1
26 7 1
27 7 1
28 7 1
29 7 1
30 7 1
31 7 1
32 7 1
33 7 1
34 7 1
35 7 1
36 7 1
37 7 1
38 7 1
39 7 1
40 7 1
41 7 1
42 7 1
43 7 1
44 7 1
45 7 1
46 7 1
47 7 1
48 7 1
49 7 1
0 8 1
1 8 1
2 8 1
3 8 1
4 8 1
5 8 1
6 8 1
7 8 1
8 8 1
9 8 1
10 8 1
11 8 1
12 8 1
13 8 1
14 8 1
15 8 1
16 8 1
17 8 1
18 8 1
19 8 1
20 8 1
21 8 1
22 8 1
23 8 1
24 8 1
25 8 1
26 8 1
27 8 1
28 8 1
29 8 1
30 8 1
31 8 1
32 8 1
33 8 1
34 8 1
35 8 1
36 8 1
37 8 1
38 8 1
39 8 1
40 8 1
41 8 1
42 8 1
43 8 1
44 8 1
45 8 1
46 8 1
47 8 1
48 8 1
49 8 1
0 9 1
1 9 1
2 9 1
3 9 1
4 9 1
5 9 1
6 9 1
7 9 1
8 9 1
9 9 1
10 9 1
11 9 1
12 9 1
13 9 1
14 9 1
15 9 1
16 9 1
17 9 1
18 9 1
19 9 1
20 9 1
21 9 1
22 9 1
23 9 1
24 9 1
25 9 1
26 9 1
27 9 1
28 9 1
29 9 1
30 9 1
31 9 1
32 9 1
33 9 1
34 9 1
35 9 1
36 9 1
37 9 1
38 9 1
39 9 1
40 9 1
41 9 1
42 9 1
43 9 1
44 9 1
45 9 1
46 9 1
47 9 1
48 9 1
49 9 1
0 0 2
1 0 2
2 0 2
3 0 2
4 0 2
5 0 2
6 0 2
7 0 2
8 0 2
9 0 2
10 0 2
11 0 2
12 0 2
13 0 2
14 0 2
15 0 2
16 0 2
17 0 2
18 0 2
19 0 2
20 0 2
21 0 2
22 0 2
23 0 2
24 0 2
25 0 2
26 0 2
27 0 2
28 0 2
29 0 2
30 0 2
31 0 2
32 0 2
33 0 2
34 0 2
35 0 2
36 0 2
37 0 2
38 0 2
39 0 2
40 0 2
41 0 2
42 0 2
43 0 2
44 0 2
45 0 2
46 0 2
47 0 2
48 0 2
49 0 2
0 1 2
1 1 2
2 1 2
3 1 2
4 1 2
5 1 2
6 1 2
7 1 2
8 1 2
9 1 2
10 1 2
11 1 2
12 1 2
13 1 2
14 1 2
15 1 2
16 1 2
17 1 2
18 1 2
19 1 2
20 1 2
21 1 2
22 1 2
23 1 2
24 1 2
25 1 2
26 1 2
27 1 2
28 1 2
29 1 2
30 1 2
31 1 2
32 1 2
33 1 2
34 1 2
35 1 2
36 1 2
37 1 2
38 1 2
39 1 2
40 1 2
41 1 2
42 1 2
43 1 2
44 1 2
45 1 2
46 1 2
47 1 2
48 1 2
49 1 2
0 2 2
1 2 2
2 2 2
3 2 2
4 2 2
5 2 2
6 2 2
7 2 2
8 2 2
9 2 2
10 2 2
11 2 2
12 2 2
13 2 2
14 2 2
15 2 2
16 2 2
17 2 2
18 2 2
19 2 2
20 2 2
21 2 2
22 2 2
23 2 2
24 2 2
25 2 2
26 2 2
27 2 2
28 2 2
29 2 2
30 2 2
31 2 2
32 2 2
33 2 2
34 2 2
35 2 2
36 2 2
37 2 2
38 2 2
39 2 2
40 2 2
41 2 2
42 2 2
43 2 2
44 2 2
45 2 2
46 2 2
47 2 2
48 2 2
49 2 2
0 3 2
1 3 2
2 3 2
3 3 2
4 3 2
5 3 2
6 3 2
7 3 2
8 3 2
9 3 2
10 3 2
11 3 2
12 3 2
13 3 2
14 3 2
15 3 2
16 3 2
17 3 2
18 3 2
19 3 2
20 3 2
21 3 2
22 3 2
23 3 2
24 3 2
25 3 2
26 3 2
27 3 2
28 3 2
29 3 2
30 3 2
31 3 2
32 3 2
33 3 2
34 3 2
35 3 2
36 3 2
37 3 2
38 3 2
39 3 2
40 3 2
41 3 2
42 3 2
43 3 2
44 3 2
45 3 2
46 3 2
47 3 2
48 3 2
49 3 2
0 4 2
1 4 2
2 4 2
3 4 2
4 4 2
5 4 2
6 4 2
7 4 2
8 4 2
9 4 2
10 4 2
11 4 2
12 4 2
13 4 2
14 4 2
15 4 2
16 4 2
17 4 2
18 4 2
19 4 2
20 4 2
21 4 2
22 4 2
23 4 2
24 4 2
25 4 2
26 4 2
27 4 2
28 4 2
29 4 2
30 4 2
31 4 2
32 4 2
33 4 2
34 4 2
35 4 2
36 4 2
37 4 2
38 4 2
39 4 2
40 4 2
41 4 2
42 4 2
43 4 2
44 4 2
45 4 2
46 4 2
47 4 2
48 4 2
49 4 2
0 5 2
1 5 2
2 5 2
3 5 2
4 5 2
5 5 2
6 5 2
7 5 2
8 5 2
9 5 2
10 5 2
11 5 2
12 5 2
13 5 2
14 5 2
15 5 2
16 5 2
17 5 2
18 5 2
19 5 2
20 5 2
21 5 2
22 5 2
23 5 2
24 5 2
25 5 2
26 5 2
27 5 2
28 5 2
29 5 2
30 5 2
31 5 2
32 5 2
33 5 2
34 5 2
35 5 2
36 5 2
37 5 2
38 5 2
39 5 2
40 5 2
41 5 2
42 5 2
43 5 2
44 5 2
45 5 2
46 5 2
47 5 2
48 5 2
49 5 2
0 6 2
1 6 2
2 6 2
3 6 2
4 6 2
5 6 2
6 6 2
7 6 2
8 6 2
9 6 2
10 6 2
11 6 2
12 6 2
13 6 2
14 6 2
15 6 2
16 6 2
17 6 2
18 6 2
19 6 2
20 6 2
21 6 2
22 6 2
23 6 2
24 6 2
25 6 2
26 6 2
27 6 2
28 6 2
29 6 2
30 6 2
31 6 2
32 6 2
33 6 2
34 6 2
35 6 2
36 6 2
37 6 2
38 6 2
39 6 2
40 6 2
41 6 2
42 6 2
43 6 2
44 6 2
45 6 2
46 6 2
47 6 2
48 6 2
49 6 2
0 7 2
1 7 2
2 7 2
3 7 2
4 7 2
5 7 2
6 7 2
7 7 2
8 7 2
9 7 2
10 7 2
11 7 2
12 7 2
13 7 2
14 7 2
15 7 2
16 7 2
17 7 2
18 7 2
19 7 2
20 7 2
21 7 2
22 7 2
23 7 2
24 7 2
25 7 2
26 7 2
27 7 2
28 7 2
29 7 2
30 7 2
31 7 2
32 7 2
33 7 2
34 7 2
35 7 2
36 7 2
37 7 2
38 7 2
39 7 2
40 7 2
41 7 2
42 7 2
43 7 2
44 7 2
45 7 2
46 7 2
47 7 2
48 7 2
49 7 2
0 8 2
1 8 2
2 8 2
3 8 2
4 8 2
5 8 2
6 8 2
7 8 2
8 8 2
9 8 2
10 8 2
11 8 2
12 8 2
13 8 2
14 8 2
15 8 2
16 8 2
17 8 2
18 8 2
19 8 2
20 8 2
21 8 2
22 8 2
23 8 2
24 8 2
25 8 2
26 8 2
27 8 2
28 8 2
29 8 2
30 8 2
31 8 2
32 8 2
33 8 2
34 8 2
35 8 2
36 8 2
37 8 2
38 8 2
39 8 2
40 8 2
41 8 2
42 8 2
43 8 2
44 8 2
45 8 2
46 8 2
47 8 2
48 8 2
49 8 2
0 9 2
1 9 2
2 9 2
3 9 2
4 9 2
[...]
POINT_DATA 15000
SCALARS sol175 float
LOOKUP_TABLE default
57.7276
57.7245
57.7215
57.7184
57.7154
57.7123
57.7093
57.7062
57.7032
57.7001
57.6971
57.6941
57.691
57.688
57.6849
57.6819
57.6788
57.6758
57.6728
57.6697
57.6667
57.6636
57.6606
57.6576
57.6545
57.6515
57.6484
57.6454
57.6424
57.6393
57.6363
57.6332
57.6302
57.6272
57.6241
57.6211
57.6181
57.615
57.612
57.609
57.6059
57.6029
57.5999
57.5968
57.5938
57.5908
57.5877
57.5847
57.5817
57.5787
57.5756
57.5726
57.5696
57.5665
57.5635
57.5605
57.5575
57.5544
57.5514
57.5484
57.5454
57.5423
57.5393
57.5363
57.5333
57.5302
57.5272
57.5242
57.5212
57.5182
57.5151
57.5121
57.5091
57.5061
57.5031
57.5
57.497
57.494
57.491
57.488
57.4849
57.4819
57.4789
57.4759
57.4729
57.4699
57.4669
57.4638
57.4608
57.4578
57.4548
57.4518
57.4488
57.4458
57.4428
57.4397
57.4367
57.4337
57.4307
57.4277
57.4247
57.4217
57.4187
57.4157
57.4127
57.4097
57.4067
57.4036
57.4006
57.3976
57.3946
57.3916
57.3886
57.3856
57.3826
57.3796
57.3766
57.3736
57.3706
57.3676
57.3646
57.3616
57.3586
57.3556
57.3526
57.3496
57.3466
57.3436
57.3406
57.3376
57.3346
57.3316
57.3286
57.3256
57.3226
57.3196
57.3166
57.3137
57.3107
57.3077
57.3047
57.3017
57.2987
57.2957
57.2927
57.2897
57.2867
57.2837
57.2807
57.2778
57.2748
57.2718
57.2688
57.2658
57.2628
57.2598
57.2568
57.2539
57.2509
57.2479
57.2449
57.2419
57.2389
57.2359
57.233
57.23
57.227
57.224
57.221
57.2181
57.2151
57.2121
57.2091
57.2061
57.2032
57.2002
57.1972
57.1942
57.1912
57.1883
57.1853
57.1823
57.1793
57.1764
57.1734
57.1704
57.1674
57.1645
57.1615
57.1585
57.1555
57.1526
57.1496
57.1466
57.1437
57.1407
57.1377
57.1347
57.1318
57.1288
57.1258
57.1229
57.1199
57.1169
57.114
57.111
57.108
57.1051
57.1021
57.0991
57.0962
57.0932
57.0902
57.0873
57.0843
57.0814
57.0784
57.0754
57.0725
57.0695
57.0665
57.0636
57.0606
57.0577
57.0547
57.0517
57.0488
57.0458
57.0429
57.0399
57.037
57.034
57.031
57.0281
57.0251
57.0222
57.0192
57.0163
57.0133
57.0104
57.0074
57.0045
57.0015
56.9986
56.9956
56.9927
56.9897
56.9868
56.9838
56.9809
56.9779
56.975
56.972
56.9691
56.9661
56.9632
56.9602
56.9573
56.9543
56.9514
56.9484
56.9455
56.9426
56.9396
56.9367
56.9337
56.9308
56.9278
56.9249
56.922
56.919
56.9161
56.9131
56.9102
56.9073
56.9043
56.9014
56.8984
56.8955
56.8926
56.8896
56.8867
56.8838
56.8808
56.8779
56.8749
56.872
56.8691
56.8661
56.8632
56.8603
56.8573
56.8544
56.8515
56.8485
56.8456
56.8427
56.8398
56.8368
56.8339
56.831
56.828
56.8251
56.8222
56.8193
56.8163
56.8134
56.8105
56.8076
56.8046
56.8017
56.7988
56.7959
56.7929
56.79
56.7871
56.7842
56.7812
56.7783
56.7754
56.7725
56.7695
56.7666
56.7637
56.7608
56.7579
56.755
56.752
56.7491
56.7462
56.7433
56.7404
56.7374
56.7345
56.7316
56.7287
56.7258
56.7229
56.72
56.717
56.7141
56.7112
56.7083
56.7054
56.7025
56.6996
56.6967
56.6937
56.6908
56.6879
56.685
56.6821
56.6792
56.6763
56.6734
56.6705
56.6676
56.6647
56.6618
56.6589
56.6559
56.653
56.6501
56.6472
56.6443
56.6414
56.6385
56.6356
56.6327
56.6298
56.6269
56.624
56.6211
56.6182
56.6153
56.6124
56.6095
56.6066
56.6037
56.6008
56.5979
56.595
56.5921
56.5892
56.5863
56.5834
56.5805
56.5777
56.5748
56.5719
56.569
56.5661
56.5632
56.5603
56.5574
56.5545
56.5516
56.5487
56.5458
56.5429
56.5401
56.5372
56.5343
56.5314
56.5285
56.5256
56.5227
56.5198
56.517
56.5141
56.5112
56.5083
56.5054
56.5025
56.4996
56.4968
56.4939
56.491
56.4881
56.4852
56.4823
56.4795
56.4766
56.4737
56.4708
56.4679
56.4651
56.4622
56.4593
56.4564
56.4535
56.4507
56.4478
56.4449
56.442
56.4392
56.4363
56.4334
56.4305
56.4277
56.4248
56.4219
56.419
56.4162
56.4133
56.4104
56.4076
56.4047
56.4018
56.3989
56.3961
56.3932
56.3903
56.3875
56.3846
56.3817
56.3789
56.376
56.3731
56.3703
56.3674
56.3645
56.3617
56.3588
56.3559
56.3531
56.3502
56.3473
56.3445
56.3416
56.3388
56.3359
56.333
56.3302
56.3273
56.3245
56.3216
56.3187
56.3159
56.313
56.3102
56.3073
56.3044
56.3016
56.2987
56.2959
56.293
56.2902
56.2873
56.2844
56.2816
56.2787
56.2759
56.273
56.2702
56.2673
56.2645
56.2616
56.2588
56.2559
56.2531
56.2502
56.2474
56.2445
56.2417
56.2388
56.236
56.2331
56.2303
56.2274
56.2246
56.2217
56.2189
56.216
56.2132
56.2104
56.2075
56.2047
56.2018
56.199
56.1961
56.1933
56.1905
56.1876
56.1848
56.1819
56.1791
56.1763
56.1734
56.1706
56.1677
56.1649
56.1621
56.1592
56.1564
56.1535
56.1507
56.1479
56.145
56.1422
56.1394
56.1365
56.1337
56.1309
56.128
56.1252
56.1224
56.1195
56.1167
56.1139
56.111
56.1082
56.1054
56.1026
56.0997
56.0969
56.0941
56.0912
56.0884
56.0856
56.0828
56.0799
56.0771
56.0743
56.0714
56.0686
56.0658
56.063
56.0601
56.0573
56.0545
56.0517
56.0489
56.046
56.0432
56.0404
56.0376
56.0347
56.0319
56.0291
56.0263
56.0235
56.0207
56.0178
56.015
56.0122
56.0094
56.0066
56.0037
56.0009
55.9981
55.9953
55.9925
55.9897
55.9869
55.984
55.9812
55.9784
55.9756
55.9728
55.97
55.9672
55.9644
55.9615
55.9587
55.9559
55.9531
55.9503
55.9475
55.9447
55.9419
55.9391
55.9363
55.9335
55.9307
55.9279
55.925
55.9222
55.9194
55.9166
55.9138
55.911
55.9082
55.9054
55.9026
55.8998
55.897
55.8942
55.8914
55.8886
55.8858
55.883
55.8802
55.8774
55.8746
55.8718
55.869
55.8662
55.8634
55.8606
55.8578
55.855
55.8522
55.8494
55.8466
55.8439
55.8411
55.8383
55.8355
55.8327
55.8299
55.8271
55.8243
55.8215
55.8187
55.8159
55.8131
55.8104
55.8076
55.8048
55.802
55.7992
55.7964
55.7936
55.7908
55.788
55.7853
55.7825
55.7797
55.7769
55.7741
55.7713
55.7686
55.7658
55.763
55.7602
55.7574
55.7546
55.7519
55.7491
55.7463
55.7435
55.7407
55.738
55.7352
55.7324
55.7296
55.7268
55.7241
55.7213
55.7185
55.7157
55.713
55.7102
55.7074
55.7046
55.7019
55.6991
55.6963
55.6935
55.6908
55.688
55.6852
55.6824
55.6797
55.6769
55.6741
55.6714
55.6686
55.6658
55.663
55.6603
55.6575
55.6547
55.652
55.6492
55.6464
55.6437
55.6409
55.6381
55.6354
55.6326
55.6298
55.6271
55.6243
55.6216
55.6188
55.616
55.6133
55.6105
55.6077
55.605
55.6022
55.5995
55.5967
55.5939
55.5912
55.5884
55.5857
55.5829
55.5801
55.5774
55.5746
55.5719
55.5691
55.5664
55.5636
55.5609
55.5581
55.5553
55.5526
55.5498
55.5471
55.5443
55.5416
55.5388
55.5361
55.5333
55.5306
55.5278
55.5251
55.5223
55.5196
55.5168
55.5141
55.5113
55.5086
55.5058
55.5031
55.5003
55.4976
55.4948
55.4921
55.4894
55.4866
55.4839
55.4811
55.4784
55.4756
55.4729
55.4701
55.4674
55.4647
55.4619
55.4592
55.4564
55.4537
55.451
55.4482
55.4455
55.4427
55.44
55.4373
55.4345
55.4318
55.4291
55.4263
55.4236
55.4208
55.4181
55.4154
55.4126
55.4099
55.4072
55.4044
55.4017
55.399
55.3962
55.3935
55.3908
55.388
55.3853
55.3826
55.3799
55.3771
55.3744
55.3717
55.3689
55.3662
55.3635
55.3608
55.358
55.3553
55.3526
55.3498
55.3471
55.3444
55.3417
55.339
55.3362
55.3335
55.3308
55.3281
55.3253
55.3226
55.3199
55.3172
55.3144
55.3117
55.309
55.3063
55.3036
55.3009
55.2981
55.2954
55.2927
55.29
55.2873
55.2845
55.2818
55.2791
55.2764
55.2737
55.271
55.2683
55.2655
55.2628
55.2601
55.2574
55.2547
55.252
55.2493
55.2466
55.2438
55.2411
55.2384
55.2357
55.233
55.2303
55.2276
55.2249
55.2222
55.2195
55.2167
55.214
55.2113
55.2086
55.2059
55.2032
55.2005
55.1978
55.1951
55.1924
55.1897
55.187
55.1843
55.1816
55.1789
55.1762
55.1735
55.1708
55.1681
55.1654
55.1627
55.16
55.1573
55.1546
55.1519
55.1492
55.1465
55.1438
55.1411
55.1384
55.1357
55.133
55.1303
55.1276
55.1249
55.1222
55.1195
55.1168
55.1142
55.1115
55.1088
55.1061
55.1034
55.1007
55.098
55.0953
55.0926
55.0899
55.0872
55.0846
55.0819
55.0792
55.0765
55.0738
55.0711
55.0684
55.0657
55.0631
55.0604
55.0577
55.055
55.0523
55.0496
55.047
55.0443
55.0416
55.0389
55.0362
55.0335
55.0309
55.0282
55.0255
55.0228
55.0201
55.0175
55.0148
55.0121
55.0094
55.0068
55.0041
55.0014
54.9987
54.996
54.9934
54.9907
54.988
54.9853
54.9827
54.98
54.9773
54.9746
54.972
54.9693
54.9666
54.964
54.9613
54.9586
54.9559
54.9533
54.9506
54.9479
54.9453
54.9426
54.9399
54.9373
54.9346
54.9319
54.9293
54.9266
54.9239
54.9213
54.9186
54.9159
54.9133
54.9106
54.9079
54.9053
54.9026
54.8999
54.8973
54.8946
54.892
54.8893
54.8866
54.884
54.8813
54.8787
54.876
54.8733
54.8707
54.868
54.8654
54.8627
54.8601
54.8574
54.8547
54.8521
54.8494
54.8468
54.8441
54.8415
54.8388
54.8362
54.8335
54.8308
54.8282
54.8255
54.8229
54.8202
54.8176
54.8149
54.8123
54.8096
54.807
54.8043
54.8017
54.799
54.7964
54.7937
54.7911
54.7885
54.7858
54.7832
54.7805
54.7779
54.7752
54.7726
54.7699
54.7673
54.7646
54.762
54.7594
54.7567
54.7541
54.7514
54.7488
54.7462
54.7435
54.7409
54.7382
54.7356
54.733
54.7303
54.7277
54.725
54.7224
54.7198
54.7171
54.7145
54.7119
54.7092
54.7066
54.7039
54.7013
54.6987
54.696
54.6934
54.6908
54.6881
54.6855
54.6829
54.6802
54.6776
54.675
54.6724
54.6697
54.6671
54.6645
54.6618
54.6592
54.6566
54.654
54.6513
54.6487
54.6461
54.6434
54.6408
54.6382
54.6356
54.6329
54.6303
54.6277
54.6251
54.6224
54.6198
54.6172
54.6146
54.612
54.6093
54.6067
54.6041
54.6015
54.5988
54.5962
54.5936
54.591
54.5884
54.5858
54.5831
54.5805
54.5779
54.5753
54.5727
54.5701
54.5674
54.5648
54.5622
54.5596
54.557
54.5544
54.5518
54.5491
54.5465
54.5439
54.5413
54.5387
54.5361
54.5335
54.5309
54.5282
54.5256
54.523
54.5204
54.5178
54.5152
54.5126
54.51
54.5074
54.5048
54.5022
54.4996
54.497
54.4943
54.4917
54.4891
54.4865
54.4839
54.4813
54.4787
54.4761
54.4735
54.4709
54.4683
54.4657
54.4631
54.4605
54.4579
54.4553
54.4527
54.4501
54.4475
54.4449
54.4423
54.4397
54.4371
54.4345
54.4319
54.4293
54.4267
54.4241
54.4216
54.419
54.4164
54.4138
54.4112
54.4086
54.406
54.4034
54.4008
54.3982
54.3956
54.393
54.3904
54.3879
54.3853
54.3827
54.3801
54.3775
54.3749
54.3723
54.3697
54.3671
54.3646
54.362
54.3594
54.3568
54.3542
54.3516
54.349
54.3465
54.3439
54.3413
54.3387
54.3361
54.3335
54.331
54.3284
54.3258
54.3232
54.3206
54.3181
54.3155
54.3129
54.3103
54.3077
54.3052
54.3026
54.3
54.2974
54.2949
54.2923
54.2897
54.2871
54.2846
54.282
54.2794
54.2768
54.2743
54.2717
54.2691
54.2665
54.264
54.2614
54.2588
54.2563
54.2537
54.2511
54.2485
54.246
54.2434
54.2408
54.2383
54.2357
54.2331
54.2306
54.228
54.2254
54.2229
54.2203
54.2177
54.2152
54.2126
54.21
54.2075
54.2049
54.2023
54.1998
54.1972
54.1947
54.1921
54.1895
54.187
54.1844
54.1818
54.1793
54.1767
54.1742
54.1716
54.169
54.1665
54.1639
54.1614
54.1588
54.1563
54.1537
54.1511
54.1486
54.146
54.1435
54.1409
54.1384
54.1358
54.1333
54.1307
54.1282
54.1256
54.1231
54.1205
54.118
54.1154
54.1128
54.1103
54.1077
54.1052
54.1027
54.1001
54.0976
54.095
54.0925
54.0899
54.0874
54.0848
54.0823
54.0797
54.0772
54.0746
54.0721
54.0695
54.067
54.0645
54.0619
54.0594
54.0568
54.0543
54.0517
54.0492
54.0467
54.0441
54.0416
54.039
54.0365
54.034
54.0314
54.0289
54.0263
54.0238
54.0213
54.0187
54.0162
54.0137
54.0111
54.0086
54.0061
54.0035
54.001
53.9985
53.9959
53.9934
53.9909
53.9883
53.9858
53.9833
53.9807
53.9782
53.9757
53.9731
53.9706
53.9681
53.9655
53.963
53.9605
53.958
53.9554
53.9529
53.9504
53.9478
53.9453
53.9428
53.9403
53.9377
53.9352
53.9327
53.9302
53.9276
53.9251
53.9226
53.9201
53.9176
53.915
53.9125
53.91
53.9075
53.9049
53.9024
53.8999
53.8974
53.8949
53.8923
53.8898
53.8873
53.8848
53.8823
53.8798
53.8772
53.8747
53.8722
53.8697
53.8672
53.8647
53.8622
53.8596
53.8571
53.8546
53.8521
53.8496
53.8471
53.8446
53.842
53.8395
53.837
53.8345
53.832
53.8295
53.827
53.8245
53.822
53.8195
53.817
53.8144
53.8119
53.8094
53.8069
53.8044
53.8019
53.7994
53.7969
53.7944
53.7919
53.7894
53.7869
53.7844
53.7819
53.7794
53.7769
53.7744
53.7719
53.7694
53.7669
53.7644
53.7619
53.7594
53.7569
53.7544
53.7519
53.7494
53.7469
53.7444
53.7419
53.7394
53.7369
53.7344
53.7319
53.7294
53.7269
53.7244
53.7219
53.7194
53.7169
53.7144
53.712
53.7095
53.707
53.7045
53.702
53.6995
53.697
53.6945
53.692
53.6895
53.687
53.6846
53.6821
53.6796
53.6771
53.6746
53.6721
53.6696
53.6671
53.6647
53.6622
53.6597
53.6572
53.6547
53.6522
53.6498
53.6473
53.6448
53.6423
53.6398
53.6373
53.6349
53.6324
53.6299
53.6274
53.6249
53.6225
53.62
53.6175
53.615
53.6125
53.6101
53.6076
53.6051
53.6026
53.6002
53.5977
53.5952
53.5927
53.5903
53.5878
53.5853
53.5828
53.5804
53.5779
53.5754
53.5729
53.5705
53.568
53.5655
53.5631
53.5606
53.5581
53.5556
53.5532
53.5507
53.5482
53.5458
53.5433
53.5408
53.5384
53.5359
53.5334
53.531
53.5285
53.526
53.5236
53.5211
53.5186
53.5162
53.5137
53.5113
53.5088
53.5063
53.5039
53.5014
53.4989
53.4965
53.494
53.4916
53.4891
53.4866
53.4842
53.4817
53.4793
53.4768
53.4743
53.4719
53.4694
53.467
53.4645
53.4621
53.4596
53.4572
53.4547
53.4522
53.4498
53.4473
53.4449
53.4424
53.44
53.4375
53.4351
53.4326
53.4302
53.4277
53.4253
53.4228
53.4204
53.4179
53.4155
53.413
53.4106
53.4081
53.4057
53.4032
53.4008
53.3983
53.3959
53.3934
53.391
53.3885
53.3861
53.3837
53.3812
53.3788
53.3763
53.3739
53.3714
53.369
53.3666
53.3641
53.3617
53.3592
53.3568
53.3544
53.3519
53.3495
53.347
53.3446
53.3422
53.3397
53.3373
53.3348
53.3324
53.33
53.3275
53.3251
53.3227
53.3202
53.3178
53.3154
53.3129
53.3105
53.3081
53.3056
53.3032
53.3008
53.2983
53.2959
53.2935
53.291
53.2886
53.2862
53.2837
53.2813
53.2789
53.2765
53.274
53.2716
53.2692
53.2667
53.2643
53.2619
53.2595
53.257
53.2546
53.2522
53.2498
53.2473
53.2449
53.2425
53.2401
53.2376
53.2352
53.2328
53.2304
53.228
53.2255
53.2231
53.2207
53.2183
53.2159
53.2134
53.211
53.2086
53.2062
53.2038
53.2013
53.1989
53.1965
53.1941
53.1917
53.1893
53.1868
53.1844
53.182
53.1796
53.1772
53.1748
53.1724
53.1699
53.1675
53.1651
53.1627
53.1603
53.1579
53.1555
53.1531
53.1507
53.1482
53.1458
53.1434
53.141
53.1386
53.1362
53.1338
53.1314
53.129
53.1266
53.1242
53.1218
53.1194
53.1169
53.1145
53.1121
53.1097
53.1073
53.1049
53.1025
53.1001
53.0977
53.0953
53.0929
53.0905
53.0881
53.0857
53.0833
53.0809
53.0785
53.0761
53.0737
53.0713
53.0689
53.0665
53.0641
53.0617
53.0593
53.0569
53.0545
53.0521
53.0497
53.0474
53.045
53.0426
53.0402
53.0378
53.0354
53.033
53.0306
53.0282
53.0258
53.0234
53.021
53.0186
53.0163
53.0139
53.0115
53.0091
53.0067
53.0043
53.0019
52.9995
52.9971
52.9948
52.9924
52.99
52.9876
52.9852
52.9828
52.9804
52.9781
52.9757
52.9733
52.9709
52.9685
52.9661
52.9638
52.9614
52.959
52.9566
52.9542
52.9518
52.9495
52.9471
52.9447
52.9423
52.94
52.9376
52.9352
52.9328
52.9304
52.9281
52.9257
52.9233
52.9209
52.9186
52.9162
52.9138
52.9114
52.9091
52.9067
52.9043
52.9019
52.8996
52.8972
52.8948
52.8924
52.8901
52.8877
52.8853
52.883
52.8806
52.8782
52.8759
52.8735
52.8711
52.8687
52.8664
52.864
52.8616
52.8593
52.8569
52.8545
52.8522
52.8498
52.8475
52.8451
52.8427
52.8404
52.838
52.8356
52.8333
52.8309
52.8285
52.8262
52.8238
52.8215
52.8191
52.8167
52.8144
52.812
52.8097
52.8073
52.8049
52.8026
52.8002
52.7979
52.7955
52.7932
52.7908
52.7884
52.7861
52.7837
52.7814
52.779
52.7767
52.7743
52.772
52.7696
52.7673
52.7649
52.7625
52.7602
52.7578
52.7555
52.7531
52.7508
52.7484
52.7461
52.7437
52.7414
52.739
52.7367
52.7343
52.732
52.7296
52.7273
52.725
52.7226
52.7203
52.7179
52.7156
52.7132
52.7109
52.7085
52.7062
52.7039
52.7015
52.6992
52.6968
52.6945
52.6921
52.6898
52.6875
52.6851
52.6828
52.6804
52.6781
52.6758
52.6734
52.6711
52.6687
52.6664
52.6641
52.6617
52.6594
52.6571
52.6547
52.6524
52.65
52.6477
52.6454
52.643
52.6407
52.6384
52.636
52.6337
52.6314
52.629
52.6267
52.6244
52.6221
52.6197
52.6174
52.6151
52.6127
52.6104
52.6081
52.6057
52.6034
52.6011
52.5988
52.5964
52.5941
52.5918
52.5895
52.5871
52.5848
52.5825
52.5801
52.5778
52.5755
52.5732
52.5709
52.5685
52.5662
52.5639
52.5616
52.5592
52.5569
52.5546
52.5523
52.55
52.5476
52.5453
52.543
52.5407
52.5384
52.536
52.5337
52.5314
52.5291
52.5268
52.5245
52.5221
52.5198
52.5175
52.5152
52.5129
52.5106
52.5083
52.5059
52.5036
52.5013
52.499
52.4967
52.4944
52.4921
52.4898
52.4874
52.4851
52.4828
52.4805
52.4782
52.4759
52.4736
52.4713
52.469
52.4667
52.4644
52.462
52.4597
52.4574
52.4551
52.4528
52.4505
52.4482
52.4459
52.4436
52.4413
52.439
52.4367
52.4344
52.4321
52.4298
52.4275
52.4252
52.4229
52.4206
52.4183
52.416
52.4137
52.4114
52.4091
52.4068
52.4045
52.4022
52.3999
52.3976
52.3953
52.393
52.3907
52.3884
52.3861
52.3838
52.3815
52.3792
52.3769
52.3746
52.3723
52.3701
52.3678
52.3655
52.3632
52.3609
52.3586
52.3563
52.354
52.3517
52.3494
52.3471
52.3449
52.3426
52.3403
52.338
52.3357
52.3334
52.3311
52.3288
52.3266
52.3243
52.322
52.3197
52.3174
52.3151
52.3128
52.3106
52.3083
52.306
52.3037
52.3014
52.2991
52.2969
52.2946
52.2923
52.29
52.2877
52.2855
52.2832
52.2809
52.2786
52.2763
52.2741
52.2718
52.2695
52.2672
52.2649
52.2627
52.2604
52.2581
52.2558
52.2536
52.2513
52.249
52.2467
52.2445
52.2422
52.2399
52.2377
52.2354
52.2331
52.2308
52.2286
52.2263
52.224
52.2218
52.2195
52.2172
52.2149
52.2127
52.2104
52.2081
52.2059
52.2036
52.2013
52.1991
52.1968
52.1945
52.1923
52.19
52.1877
52.1855
52.1832
52.1809
52.1787
52.1764
52.1742
52.1719
52.1696
52.1674
52.1651
52.1628
52.1606
52.1583
52.1561
52.1538
52.1515
52.1493
52.147
52.1448
52.1425
52.1402
52.138
52.1357
52.1335
52.1312
52.129
52.1267
52.1245
52.1222
52.1199
52.1177
52.1154
52.1132
52.1109
52.1087
52.1064
52.1042
52.1019
52.0997
52.0974
52.0952
52.0929
52.0907
52.0884
52.0862
52.0839
52.0817
52.0794
52.0772
52.0749
52.0727
52.0704
52.0682
52.0659
52.0637
52.0614
52.0592
52.0569
52.0547
52.0525
52.0502
52.048
52.0457
52.0435
52.0412
52.039
52.0368
52.0345
52.0323
52.03
52.0278
52.0256
52.0233
52.0211
52.0188
52.0166
52.0144
52.0121
52.0099
52.0076
52.0054
52.0032
52.0009
51.9987
51.9965
51.9942
51.992
51.9898
51.9875
51.9853
51.9831
51.9808
51.9786
51.9764
51.9741
51.9719
51.9697
51.9674
51.9652
51.963
51.9607
51.9585
51.9563
51.954
51.9518
51.9496
51.9474
51.9451
51.9429
51.9407
51.9384
51.9362
51.934
51.9318
51.9295
51.9273
51.9251
51.9229
51.9206
51.9184
51.9162
51.914
51.9118
51.9095
51.9073
51.9051
51.9029
51.9006
51.8984
51.8962
51.894
51.8918
51.8895
51.8873
51.8851
51.8829
51.8807
51.8785
51.8762
51.874
51.8718
51.8696
51.8674
51.8652
51.8629
51.8607
51.8585
51.8563
51.8541
51.8519
51.8497
51.8474
51.8452
51.843
51.8408
51.8386
51.8364
51.8342
51.832
51.8298
51.8275
51.8253
51.8231
51.8209
51.8187
51.8165
51.8143
51.8121
51.8099
51.8077
51.8055
51.8033
51.8011
51.7988
51.7966
51.7944
51.7922
51.79
51.7878
51.7856
51.7834
51.7812
51.779
51.7768
51.7746
51.7724
51.7702
51.768
51.7658
51.7636
51.7614
51.7592
51.757
51.7548
51.7526
51.7504
51.7482
51.746
51.7438
51.7416
51.7394
51.7372
51.735
51.7329
51.7307
51.7285
51.7263
51.7241
51.7219
51.7197
51.7175
51.7153
51.7131
51.7109
51.7087
51.7065
51.7043
51.7022
51.7
51.6978
51.6956
51.6934
51.6912
51.689
51.6868
51.6846
51.6825
51.6803
51.6781
51.6759
51.6737
51.6715
51.6693
51.6672
51.665
51.6628
51.6606
51.6584
51.6562
51.6541
51.6519
51.6497
51.6475
51.6453
51.6432
51.641
51.6388
51.6366
51.6344
51.6323
51.6301
51.6279
51.6257
51.6235
51.6214
51.6192
51.617
51.6148
51.6127
51.6105
51.6083
51.6061
51.604
51.6018
51.5996
51.5974
51.5953
51.5931
51.5909
51.5887
51.5866
51.5844
51.5822
51.5801
51.5779
51.5757
51.5735
51.5714
51.5692
51.567
51.5649
51.5627
51.5605
51.5584
51.5562
51.554
51.5519
51.5497
51.5475
51.5454
51.5432
51.541
51.5389
51.5367
51.5345
51.5324
51.5302
51.528
51.5259
51.5237
51.5216
51.5194
51.5172
51.5151
51.5129
51.5108
51.5086
51.5064
51.5043
51.5021
51.5
51.4978
51.4956
51.4935
51.4913
51.4892
51.487
51.4849
51.4827
51.4806
51.4784
51.4762
51.4741
51.4719
51.4698
51.4676
51.4655
51.4633
51.4612
51.459
51.4569
51.4547
51.4526
51.4504
51.4483
51.4461
51.444
51.4418
51.4397
51.4375
51.4354
51.4332
51.4311
51.4289
51.4268
51.4246
51.4225
51.4203
51.4182
51.416
51.4139
51.4118
51.4096
51.4075
51.4053
51.4032
51.401
51.3989
51.3968
51.3946
51.3925
51.3903
51.3882
51.386
51.3839
51.3818
51.3796
51.3775
51.3753
51.3732
51.3711
51.3689
51.3668
51.3647
51.3625
51.3604
51.3583
51.3561
51.354
51.3518
51.3497
51.3476
51.3454
51.3433
51.3412
51.339
51.3369
51.3348
51.3326
51.3305
51.3284
51.3262
51.3241
51.322
51.3199
51.3177
51.3156
51.3135
51.3113
51.3092
51.3071
51.305
51.3028
51.3007
51.2986
51.2964
51.2943
51.2922
51.2901
51.2879
51.2858
51.2837
51.2816
51.2795
51.2773
51.2752
51.2731
51.271
51.2688
51.2667
51.2646
51.2625
51.2604
51.2582
51.2561
51.254
51.2519
51.2498
51.2476
51.2455
51.2434
51.2413
51.2392
51.237