# vtk DataFile Version 2.0
vtk output
ASCII
DATASET STRUCTURED_GRID
DIMENSIONS 50 10 30
POINTS 15000 float
0 0 0
1 0 0
2 0 0
3 0 0
4 0 0
5 0 0
6 0 0
7 0 0
8 0 0
9 0 0
10 0 0
11 0 0
12 0 0
13 0 0
14 0 0
15 0 0
16 0 0
17 0 0
18 0 0
19 0 0
20 0 0
21 0 0
22 0 0
23 0 0
24 0 0
25 0 0
26 0 0
27 0 0
28 0 0
29 0 0
30 0 0
31 0 0
32 0 0
33 0 0
34 0 0
35 0 0
36 0 0
37 0 0
38 0 0
39 0 0
40 0 0
41 0 0
42 0 0
43 0 0
44 0 0
45 0 0
46 0 0
47 0 0
48 0 0
49 0 0
0 1 0
1 1 0
2 1 0
3 1 0
4 1 0
5 1 0
6 1 0
7 1 0
8 1 0
9 1 0
10 1 0
11 1 0
12 1 0
13 1 0
14 1 0
15 1 0
16 1 0
17 1 0
18 1 0
19 1 0
20 1 0
21 1 0
22 1 0
23 1 0
24 1 0
25 1 0
26 1 0
27 1 0
28 1 0
29 1 0
30 1 0
31 1 0
32 1 0
33 1 0
34 1 0
35 1 0
36 1 0
37 1 0
38 1 0
39 1 0
40 1 0
41 1 0
42 1 0
43 1 0
44 1 0
45 1 0
46 1 0
47 1 0
48 1 0
49 1 0
0 2 0
1 2 0
2 2 0
3 2 0
4 2 0
5 2 0
6 2 0
7 2 0
8 2 0
9 2 0
10 2 0
11 2 0
12 2 0
13 2 0
14 2 0
15 2 0
16 2 0
17 2 0
18 2 0
19 2 0
20 2 0
21 2 0
22 2 0
23 2 0
24 2 0
25 2 0
26 2 0
27 2 0
28 2 0
29 2 0
30 2 0
31 2 0
32 2 0
33 2 0
34 2 0
35 2 0
36 2 0
37 2 0
38 2 0
39 2 0
40 2 0
41 2 0
42 2 0
43 2 0
44 2 0
45 2 0
46 2 0
47 2 0
48 2 0
49 2 0
0 3 0
1 3 0
2 3 0
3 3 0
4 3 0
5 3 0
6 3 0
7 3 0
8 3 0
9 3 0
10 3 0
11 3 0
12 3 0
13 3 0
14 3 0
15 3 0
16 3 0
17 3 0
18 3 0
19 3 0
20 3 0
21 3 0
22 3 0
23 3 0
24 3 0
25 3 0
26 3 0
27 3 0
28 3 0
29 3 0
30 3 0
31 3 0
32 3 0
33 3 0
34 3 0
35 3 0
36 3 0
37 3 0
38 3 0
39 3 0
40 3 0
41 3 0
42 3 0
43 3 0
44 3 0
45 3 0
46 3 0
47 3 0
48 3 0
49 3 0
0 4 0
1 4 0
2 4 0
3 4 0
4 4 0
5 4 0
6 4 0
7 4 0
8 4 0
9 4 0
10 4 0
11 4 0
12 4 0
13 4 0
14 4 0
15 4 0
16 4 0
17 4 0
18 4 0
19 4 0
20 4 0
21 4 0
22 4 0
23 4 0
24 4 0
25 4 0
26 4 0
27 4 0
28 4 0
29 4 0
30 4 0
31 4 0
32 4 0
33 4 0
34 4 0
35 4 0
36 4 0
37 4 0
38 4 0
39 4 0
40 4 0
41 4 0
42 4 0
43 4 0
44 4 0
45 4 0
46 4 0
47 4 0
48 4 0
49 4 0
0 5 0
1 5 0
2 5 0
3 5 0
4 5 0
5 5 0
6 5 0
7 5 0
8 5 0
9 5 0
10 5 0
11 5 0
12 5 0
13 5 0
14 5 0
15 5 0
16 5 0
17 5 0
18 5 0
19 5 0
20 5 0
21 5 0
22 5 0
23 5 0
24 5 0
25 5 0
26 5 0
27 5 0
28 5 0
29 5 0
30 5 0
31 5 0
32 5 0
33 5 0
34 5 0
35 5 0
36 5 0
37 5 0
38 5 0
39 5 0
40 5 0
41 5 0
42 5 0
43 5 0
44 5 0
45 5 0
46 5 0
47 5 0
48 5 0
49 5 0
0 6 0
1 6 0
2 6 0
3 6 0
4 6 0
5 6 0
6 6 0
7 6 0
8 6 0
9 6 0
10 6 0
11 6 0
12 6 0
13 6 0
14 6 0
15 6 0
16 6 0
17 6 0
18 6 0
19 6 0
20 6 0
21 6 0
22 6 0
23 6 0
24 6 0
25 6 0
26 6 0
27 6 0
28 6 0
29 6 0
30 6 0
31 6 0
32 6 0
33 6 0
34 6 0
35 6 0
36 6 0
37 6 0
38 6 0
39 6 0
40 6 0
41 6 0
42 6 0
43 6 0
44 6 0
45 6 0
46 6 0
47 6 0
48 6 0
49 6 0
0 7 0
1 7 0
2 7 0
3 7 0
4 7 0
5 7 0
6 7 0
7 7 0
8 7 0
9 7 0
10 7 0
11 7 0
12 7 0
13 7 0
14 7 0
15 7 0
16 7 0
17 7 0
18 7 0
19 7 0
20 7 0
21 7 0
22 7 0
23 7 0
24 7 0
25 7 0
26 7 0
27 7 0
28 7 0
29 7 0
30 7 0
31 7 0
32 7 0
33 7 0
34 7 0
35 7 0
36 7 0
37 7 0
38 7 0
39 7 0
40 7 0
41 7 0
42 7 0
43 7 0
44 7 0
45 7 0
46 7 0
47 7 0
48 7 0
49 7 0
0 8 0
1 8 0
2 8 0
3 8 0
4 8 0
5 8 0
6 8 0
7 8 0
8 8 0
9 8 0
10 8 0
11 8 0
12 8 0
13 8 0
14 8 0
15 8 0
16 8 0
17 8 0
18 8 0
19 8 0
20 8 0
21 8 0
22 8 0
23 8 0
24 8 0
25 8 0
26 8 0
27 8 0
28 8 0
29 8 0
30 8 0
31 8 0
32 8 0
33 8 0
34 8 0
35 8 0
36 8 0
37 8 0
38 8 0
39 8 0
40 8 0
41 8 0
42 8 0
43 8 0
44 8 0
45 8 0
46 8 0
47 8 0
48 8 0
49 8 0
0 9 0
1 9 0
2 9 0
3 9 0
4 9 0
5 9 0
6 9 0
7 9 0
8 9 0
9 9 0
10 9 0
11 9 0
12 9 0
13 9 0
14 9 0
15 9 0
16 9 0
17 9 0
18 9 0
19 9 0
20 9 0
21 9 0
22 9 0
23 9 0
24 9 0
25 9 0
26 9 0
27 9 0
28 9 0
29 9 0
30 9 0
31 9 0
32 9 0
33 9 0
34 9 0
35 9 0
36 9 0
37 9 0
38 9 0
39 9 0
40 9 0
41 9 0
42 9 0
43 9 0
44 9 0
45 9 0
46 9 0
47 9 0
48 9 0
49 9 0
0 0 1
1 0 1
2 0 1
3 0 1
4 0 1
5 0 1
6 0 1
7 0 1
8 0 1
9 0 1
10 0 1
11 0 1
12 0 1
13 0 1
14 0 1
15 0 1
16 0 1
17 0 1
18 0 1
19 0 1
20 0 1
21 0 1
22 0 1
23 0 1
24 0 1
25 0 1
26 0 1
27 0 1
28 0 1
29 0 1
30 0 1
31 0 1
32 0 1
33 0 1
34 0 1
35 0 1
36 0 1
37 0 1
38 0 1
39 0 1
40 0 1
41 0 1
42 0 1
43 0 1
44 0 1
45 0 1
46 0 1
47 0 1
48 0 1
49 0 1
0 1 1
1 1 1
2 1 1
3 1 1
4 1 1
5 1 1
6 1 1
7 1 1
8 1 1
9 1 1
10 1 1
11 1 1
12 1 1
13 1 1
14 1 1
15 1 1
16 1 1
17 1 1
18 1 1
19 1 1
20 1 1
21 1 1
22 1 1
23 1 1
24 1 1
25 1 1
26 1 1
27 1 1
28 1 1
29 1 1
30 1 1
31 1 1
32 1 1
33 1 1
34 1 1
35 1 1
36 1 1
37 1 1
38 1 1
39 1 1
40 1 1
41 1 1
42 1 1
43 1 1
44 1 1
45 1 1
46 1 1
47 1 1
48 1 1
49 1 1
0 2 1
1 2 1
2 2 1
3 2 1
4 2 1
5 2 1
6 2 1
7 2 1
8 2 1
9 2 1
10 2 1
11 2 1
12 2 1
13 2 1
14 2 1
15 2 1
16 2 1
17 2 1
18 2 1
19 2 1
20 2 1
21 2 1
22 2 1
23 2 1
24 2 1
25 2 1
26 2 1
27 2 1
28 2 1
29 2 1
30 2 1
31 2 1
32 2 1
33 2 1
34 2 1
35 2 1
36 2 1
37 2 1
38 2 1
39 2 1
40 2 1
41 2 1
42 2 1
43 2 1
44 2 1
45 2 1
46 2 1
47 2 1
48 2 1
49 2 1
0 3 1
1 3 1
2 3 1
3 3 1
4 3 1
5 3 1
6 3 1
7 3 1
8 3 1
9 3 1
10 3 1
11 3 1
12 3 1
13 3 1
14 3 1
15 3 1
16 3 1
17 3 1
18 3 1
19 3 1
20 3 1
21 3 1
22 3 1
23 3 1
24 3 1
25 3 1
26 3 1
27 3 1
28 3 1
29 3 1
30 3 1
31 3 1
32 3 1
33 3 1
34 3 1
35 3 1
36 3 1
37 3 1
38 3 1
39 3 1
40 3 1
41 3 1
42 3 1
43 3 1
44 3 1
45 3 1
46 3 1
47 3 1
48 3 1
49 3 1
0 4 1
1 4 1
2 4 1
3 4 1
4 4 1
5 4 1
6 4 1
7 4 1
8 4 1
9 4 1
10 4 1
11 4 1
12 4 1
13 4 1
14 4 1
15 4 1
16 4 1
17 4 1
18 4 1
19 4 1
20 4 1
21 4 1
22 4 1
23 4 1
24 4 1
25 4 1
26 4 1
27 4 1
28 4 1
29 4 1
30 4 1
31 4 1
32 4 1
33 4 1
34 4 1
35 4 1
36 4 1
37 4 1
38 4 1
39 4 1
40 4 1
41 4 1
42 4 1
43 4 1
44 4 1
45 4 1
46 4 1
47 4 1
48 4 1
49 4 1
0 5 1
1 5 1
2 5 1
3 5 1
4 5 1
5 5 1
6 5 1
7 5 1
8 5 1
9 5 1
10 5 1
11 5 1
12 5 1
13 5 1
14 5 1
15 5 1
16 5 1
17 5 1
18 5 1
19 5 1
20 5 1
21 5 1
22 5 1
23 5 1
24 5 1
25 5 1
26 5 1
27 5 1
28 5 1
29 5 1
30 5 1
31 5 1
32 5 1
33 5 1
34 5 1
35 5 1
36 5 1
37 5 1
38 5 1
39 5 1
40 5 1
41 5 1
42 5 1
43 5 1
44 5 1
45 5 1
46 5 1
47 5 1
48 5 1
49 5 1
0 6 1
1 6 1
2 6 1
3 6 1
4 6 1
5 6 1
6 6 1
7 6 1
8 6 1
9 6 1
10 6 1
11 6 1
12 6 1
13 6 1
14 6 1
15 6 1
16 6 1
17 6 1
18 6 1
19 6 1
20 6 1
21 6 1
22 6 1
23 6 1
24 6 1
25 6 1
26 6 1
27 6 1
28 6 1
29 6 1
30 6 1
31 6 1
32 6 1
33 6 1
34 6 1
35 6 1
36 6 1
37 6 1
38 6 1
39 6 1
40 6 1
41 6 1
42 6 1
43 6 1
44 6 1
45 6 1
46 6 1
47 6 1
48 6 1
49 6 1
0 7 1
1 7 1
2 7 1
3 7 1
4 7 1
5 7 1
6 7 1
7 7 1
8 7 1
9 7 1
10 7 1
11 7 1
12 7 1
13 7 1
14 7 1
15 7 1
16 7 1
17 7 1
18 7 1
19 7 1
20 7 1
21 7 1
22 7 1
23 7 1
24 7 1
25 7 1
26 7 1
27 7 1
28 7 1
29 7 1
30 7 1
31 7 1
32 7 1
33 7 1
34 7 1
35 7 1
36 7 1
37 7 1
38 7 1
39 7 1
40 7 1
41 7 1
42 7 1
43 7 1
44 7 1
45 7 1
46 7 1
47 7 1
48 7 1
49 7 1
0 8 1
1 8 1
2 8 1
3 8 1
4 8 1
5 8 1
6 8 1
7 8 1
8 8 1
9 8 1
10 8 1
11 8 1
12 8 1
13 8 1
14 8 1
15 8 1
16 8 1
17 8 1
18 8 1
19 8 1
20 8 1
21 8 1
22 8 1
23 8 1
24 8 1
25 8 1
26 8 1
27 8 1
28 8 1
29 8 1
30 8 1
31 8 1
32 8 1
33 8 1
34 8 1
35 8 1
36 8 1
37 8 1
38 8 1
39 8 1
40 8 1
41 8 1
42 8 1
43 8 1
44 8 1
45 8 1
46 8 1
47 8 1
48 8 1
49 8 1
0 9 1
1 9 1
2 9 1
3 9 1
4 9 1
5 9 1
6 9 1
7 9 1
8 9 1
9 9 1
10 9 1
11 9 1
12 9 1
13 9 1
14 9 1
15 9 1
16 9 1
17 9 1
18 9 1
19 9 1
20 9 1
21 9 1
22 9 1
23 9 1
24 9 1
25 9 1
26 9 1
27 9 1
28 9 1
29 9 1
30 9 1
31 9 1
32 9 1
33 9 1
34 9 1
35 9 1
36 9 1
37 9 1
38 9 1
39 9 1
40 9 1
41 9 1
42 9 1
43 9 1
44 9 1
45 9 1
46 9 1
47 9 1
48 9 1
49 9 1
0 0 2
1 0 2
2 0 2
3 0 2
4 0 2
5 0 2
6 0 2
7 0 2
8 0 2
9 0 2
10 0 2
11 0 2
12 0 2
13 0 2
14 0 2
15 0 2
16 0 2
17 0 2
18 0 2
19 0 2
20 0 2
21 0 2
22 0 2
23 0 2
24 0 2
25 0 2
26 0 2
27 0 2
28 0 2
29 0 2
30 0 2
31 0 2
32 0 2
33 0 2
34 0 2
35 0 2
36 0 2
37 0 2
38 0 2
39 0 2
40 0 2
41 0 2
42 0 2
43 0 2
44 0 2
45 0 2
46 0 2
47 0 2
48 0 2
49 0 2
0 1 2
1 1 2
2 1 2
3 1 2
4 1 2
5 1 2
6 1 2
7 1 2
8 1 2
9 1 2
10 1 2
11 1 2
12 1 2
13 1 2
14 1 2
15 1 2
16 1 2
17 1 2
18 1 2
19 1 2
20 1 2
21 1 2
22 1 2
23 1 2
24 1 2
25 1 2
26 1 2
27 1 2
28 1 2
29 1 2
30 1 2
31 1 2
32 1 2
33 1 2
34 1 2
35 1 2
36 1 2
37 1 2
38 1 2
39 1 2
40 1 2
41 1 2
42 1 2
43 1 2
44 1 2
45 1 2
46 1 2
47 1 2
48 1 2
49 1 2
0 2 2
1 2 2
2 2 2
3 2 2
4 2 2
5 2 2
6 2 2
7 2 2
8 2 2
9 2 2
10 2 2
11 2 2
12 2 2
13 2 2
14 2 2
15 2 2
16 2 2
17 2 2
18 2 2
19 2 2
20 2 2
21 2 2
22 2 2
23 2 2
24 2 2
25 2 2
26 2 2
27 2 2
28 2 2
29 2 2
30 2 2
31 2 2
32 2 2
33 2 2
34 2 2
35 2 2
36 2 2
37 2 2
38 2 2
39 2 2
40 2 2
41 2 2
42 2 2
43 2 2
44 2 2
45 2 2
46 2 2
47 2 2
48 2 2
49 2 2
0 3 2
1 3 2
2 3 2
3 3 2
4 3 2
5 3 2
6 3 2
7 3 2
8 3 2
9 3 2
10 3 2
11 3 2
12 3 2
13 3 2
14 3 2
15 3 2
16 3 2
17 3 2
18 3 2
19 3 2
20 3 2
21 3 2
22 3 2
23 3 2
24 3 2
25 3 2
26 3 2
27 3 2
28 3 2
29 3 2
30 3 2
31 3 2
32 3 2
33 3 2
34 3 2
35 3 2
36 3 2
37 3 2
38 3 2
39 3 2
40 3 2
41 3 2
42 3 2
43 3 2
44 3 2
45 3 2
46 3 2
47 3 2
48 3 2
49 3 2
0 4 2
1 4 2
2 4 2
3 4 2
4 4 2
5 4 2
6 4 2
7 4 2
8 4 2
9 4 2
10 4 2
11 4 2
12 4 2
13 4 2
14 4 2
15 4 2
16 4 2
17 4 2
18 4 2
19 4 2
20 4 2
21 4 2
22 4 2
23 4 2
24 4 2
25 4 2
26 4 2
27 4 2
28 4 2
29 4 2
30 4 2
31 4 2
32 4 2
33 4 2
34 4 2
35 4 2
36 4 2
37 4 2
38 4 2
39 4 2
40 4 2
41 4 2
42 4 2
43 4 2
44 4 2
45 4 2
46 4 2
47 4 2
48 4 2
49 4 2
0 5 2
1 5 2
2 5 2
3 5 2
4 5 2
5 5 2
6 5 2
7 5 2
8 5 2
9 5 2
10 5 2
11 5 2
12 5 2
13 5 2
14 5 2
15 5 2
16 5 2
17 5 2
18 5 2
19 5 2
20 5 2
21 5 2
22 5 2
23 5 2
24 5 2
25 5 2
26 5 2
27 5 2
28 5 2
29 5 2
30 5 2
31 5 2
32 5 2
33 5 2
34 5 2
35 5 2
36 5 2
37 5 2
38 5 2
39 5 2
40 5 2
41 5 2
42 5 2
43 5 2
44 5 2
45 5 2
46 5 2
47 5 2
48 5 2
49 5 2
0 6 2
1 6 2
2 6 2
3 6 2
4 6 2
5 6 2
6 6 2
7 6 2
8 6 2
9 6 2
10 6 2
11 6 2
12 6 2
13 6 2
14 6 2
15 6 2
16 6 2
17 6 2
18 6 2
19 6 2
20 6 2
21 6 2
22 6 2
23 6 2
24 6 2
25 6 2
26 6 2
27 6 2
28 6 2
29 6 2
30 6 2
31 6 2
32 6 2
33 6 2
34 6 2
35 6 2
36 6 2
37 6 2
38 6 2
39 6 2
40 6 2
41 6 2
42 6 2
43 6 2
44 6 2
45 6 2
46 6 2
47 6 2
48 6 2
49 6 2
0 7 2
1 7 2
2 7 2
3 7 2
4 7 2
5 7 2
6 7 2
7 7 2
8 7 2
9 7 2
10 7 2
11 7 2
12 7 2
13 7 2
14 7 2
15 7 2
16 7 2
17 7 2
18 7 2
19 7 2
20 7 2
21 7 2
22 7 2
23 7 2
24 7 2
25 7 2
26 7 2
27 7 2
28 7 2
29 7 2
30 7 2
31 7 2
32 7 2
33 7 2
34 7 2
35 7 2
36 7 2
37 7 2
38 7 2
39 7 2
40 7 2
41 7 2
42 7 2
43 7 2
44 7 2
45 7 2
46 7 2
47 7 2
48 7 2
49 7 2
0 8 2
1 8 2
2 8 2
3 8 2
4 8 2
5 8 2
6 8 2
7 8 2
8 8 2
9 8 2
10 8 2
11 8 2
12 8 2
13 8 2
14 8 2
15 8 2
16 8 2
17 8 2
18 8 2
19 8 2
20 8 2
21 8 2
22 8 2
23 8 2
24 8 2
25 8 2
26 8 2
27 8 2
28 8 2
29 8 2
30 8 2
31 8 2
32 8 2
33 8 2
34 8 2
35 8 2
36 8 2
37 8 2
38 8 2
39 8 2
40 8 2
41 8 2
42 8 2
43 8 2
44 8 2
45 8 2
46 8 2
47 8 2
48 8 2
49 8 2
0 9 2
1 9 2
2 9 2
3 9 2
4 9 2
[...]
POINT_DATA 15000
SCALARS sol155 float
LOOKUP_TABLE default
57.347
57.344
57.3409
57.3379
57.3348
57.3318
57.3287
57.3257
57.3226
57.3196
57.3166
57.3135
57.3105
57.3074
57.3044
57.3013
57.2983
57.2952
57.2922
57.2892
57.2861
57.2831
57.28
57.277
57.274
57.2709
57.2679
57.2648
57.2618
57.2588
57.2557
57.2527
57.2497
57.2466
57.2436
57.2406
57.2375
57.2345
57.2315
57.2284
57.2254
57.2224
57.2193
57.2163
57.2133
57.2102
57.2072
57.2042
57.2011
57.1981
57.1951
57.1921
57.189
57.186
57.183
57.1799
57.1769
57.1739
57.1709
57.1678
57.1648
57.1618
57.1588
57.1557
57.1527
57.1497
57.1467
57.1436
57.1406
57.1376
57.1346
57.1316
57.1285
57.1255
57.1225
57.1195
57.1165
57.1135
57.1104
57.1074
57.1044
57.1014
57.0984
57.0954
57.0923
57.0893
57.0863
57.0833
57.0803
57.0773
57.0743
57.0712
57.0682
57.0652
57.0622
57.0592
57.0562
57.0532
57.0502
57.0472
57.0441
57.0411
57.0381
57.0351
57.0321
57.0291
57.0261
57.0231
57.0201
57.0171
57.0141
57.0111
57.0081
57.0051
57.0021
56.9991
56.9961
56.9931
56.9901
56.9871
56.9841
56.9811
56.9781
56.9751
56.9721
56.9691
56.9661
56.9631
56.9601
56.9571
56.9541
56.9511
56.9481
56.9451
56.9421
56.9391
56.9361
56.9331
56.9301
56.9271
56.9241
56.9211
56.9181
56.9151
56.9122
56.9092
56.9062
56.9032
56.9002
56.8972
56.8942
56.8912
56.8882
56.8853
56.8823
56.8793
56.8763
56.8733
56.8703
56.8673
56.8644
56.8614
56.8584
56.8554
56.8524
56.8494
56.8465
56.8435
56.8405
56.8375
56.8345
56.8315
56.8286
56.8256
56.8226
56.8196
56.8166
56.8137
56.8107
56.8077
56.8047
56.8018
56.7988
56.7958
56.7928
56.7899
56.7869
56.7839
56.7809
56.778
56.775
56.772
56.769
56.7661
56.7631
56.7601
56.7572
56.7542
56.7512
56.7483
56.7453
56.7423
56.7394
56.7364
56.7334
56.7305
56.7275
56.7245
56.7216
56.7186
56.7156
56.7127
56.7097
56.7067
56.7038
56.7008
56.6978
56.6949
56.6919
56.689
56.686
56.683
56.6801
56.6771
56.6742
56.6712
56.6682
56.6653
56.6623
56.6594
56.6564
56.6535
56.6505
56.6475
56.6446
56.6416
56.6387
56.6357
56.6328
56.6298
56.6269
56.6239
56.621
56.618
56.6151
56.6121
56.6092
56.6062
56.6033
56.6003
56.5974
56.5944
56.5915
56.5885
56.5856
56.5826
56.5797
56.5767
56.5738
56.5708
56.5679
56.5649
56.562
56.5591
56.5561
56.5532
56.5502
56.5473
56.5443
56.5414
56.5385
56.5355
56.5326
56.5296
56.5267
56.5238
56.5208
56.5179
56.5149
56.512
56.5091
56.5061
56.5032
56.5003
56.4973
56.4944
56.4915
56.4885
56.4856
56.4827
56.4797
56.4768
56.4739
56.4709
56.468
56.4651
56.4621
56.4592
56.4563
56.4533
56.4504
56.4475
56.4446
56.4416
56.4387
56.4358
56.4329
56.4299
56.427
56.4241
56.4211
56.4182
56.4153
56.4124
56.4095
56.4065
56.4036
56.4007
56.3978
56.3948
56.3919
56.389
56.3861
56.3832
56.3802
56.3773
56.3744
56.3715
56.3686
56.3656
56.3627
56.3598
56.3569
56.354
56.3511
56.3482
56.3452
56.3423
56.3394
56.3365
56.3336
56.3307
56.3278
56.3248
56.3219
56.319
56.3161
56.3132
56.3103
56.3074
56.3045
56.3016
56.2987
56.2957
56.2928
56.2899
56.287
56.2841
56.2812
56.2783
56.2754
56.2725
56.2696
56.2667
56.2638
56.2609
56.258
56.2551
56.2522
56.2493
56.2464
56.2435
56.2406
56.2377
56.2348
56.2319
56.229
56.2261
56.2232
56.2203
56.2174
56.2145
56.2116
56.2087
56.2058
56.2029
56.2
56.1971
56.1942
56.1913
56.1884
56.1855
56.1826
56.1797
56.1769
56.174
56.1711
56.1682
56.1653
56.1624
56.1595
56.1566
56.1537
56.1508
56.148
56.1451
56.1422
56.1393
56.1364
56.1335
56.1306
56.1277
56.1249
56.122
56.1191
56.1162
56.1133
56.1104
56.1076
56.1047
56.1018
56.0989
56.096
56.0932
56.0903
56.0874
56.0845
56.0816
56.0788
56.0759
56.073
56.0701
56.0672
56.0644
56.0615
56.0586
56.0557
56.0529
56.05
56.0471
56.0442
56.0414
56.0385
56.0356
56.0328
56.0299
56.027
56.0241
56.0213
56.0184
56.0155
56.0127
56.0098
56.0069
56.004
56.0012
55.9983
55.9954
55.9926
55.9897
55.9868
55.984
55.9811
55.9782
55.9754
55.9725
55.9697
55.9668
55.9639
55.9611
55.9582
55.9553
55.9525
55.9496
55.9468
55.9439
55.941
55.9382
55.9353
55.9325
55.9296
55.9267
55.9239
55.921
55.9182
55.9153
55.9125
55.9096
55.9068
55.9039
55.901
55.8982
55.8953
55.8925
55.8896
55.8868
55.8839
55.8811
55.8782
55.8754
55.8725
55.8697
55.8668
55.864
55.8611
55.8583
55.8554
55.8526
55.8497
55.8469
55.844
55.8412
55.8383
55.8355
55.8327
55.8298
55.827
55.8241
55.8213
55.8184
55.8156
55.8128
55.8099
55.8071
55.8042
55.8014
55.7985
55.7957
55.7929
55.79
55.7872
55.7843
55.7815
55.7787
55.7758
55.773
55.7702
55.7673
55.7645
55.7617
55.7588
55.756
55.7532
55.7503
55.7475
55.7447
55.7418
55.739
55.7362
55.7333
55.7305
55.7277
55.7248
55.722
55.7192
55.7163
55.7135
55.7107
55.7079
55.705
55.7022
55.6994
55.6965
55.6937
55.6909
55.6881
55.6852
55.6824
55.6796
55.6768
55.674
55.6711
55.6683
55.6655
55.6627
55.6598
55.657
55.6542
55.6514
55.6486
55.6457
55.6429
55.6401
55.6373
55.6345
55.6316
55.6288
55.626
55.6232
55.6204
55.6176
55.6148
55.6119
55.6091
55.6063
55.6035
55.6007
55.5979
55.5951
55.5922
55.5894
55.5866
55.5838
55.581
55.5782
55.5754
55.5726
55.5698
55.567
55.5641
55.5613
55.5585
55.5557
55.5529
55.5501
55.5473
55.5445
55.5417
55.5389
55.5361
55.5333
55.5305
55.5277
55.5249
55.5221
55.5193
55.5165
55.5137
55.5109
55.5081
55.5053
55.5025
55.4997
55.4969
55.4941
55.4913
55.4885
55.4857
55.4829
55.4801
55.4773
55.4745
55.4717
55.4689
55.4661
55.4633
55.4605
55.4577
55.4549
55.4521
55.4493
55.4465
55.4438
55.441
55.4382
55.4354
55.4326
55.4298
55.427
55.4242
55.4214
55.4186
55.4159
55.4131
55.4103
55.4075
55.4047
55.4019
55.3991
55.3964
55.3936
55.3908
55.388
55.3852
55.3824
55.3797
55.3769
55.3741
55.3713
55.3685
55.3657
55.363
55.3602
55.3574
55.3546
55.3518
55.3491
55.3463
55.3435
55.3407
55.338
55.3352
55.3324
55.3296
55.3269
55.3241
55.3213
55.3185
55.3158
55.313
55.3102
55.3074
55.3047
55.3019
55.2991
55.2963
55.2936
55.2908
55.288
55.2853
55.2825
55.2797
55.277
55.2742
55.2714
55.2687
55.2659
55.2631
55.2604
55.2576
55.2548
55.2521
55.2493
55.2465
55.2438
55.241
55.2382
55.2355
55.2327
55.23
55.2272
55.2244
55.2217
55.2189
55.2161
55.2134
55.2106
55.2079
55.2051
55.2024
55.1996
55.1968
55.1941
55.1913
55.1886
55.1858
55.1831
55.1803
55.1775
55.1748
55.172
55.1693
55.1665
55.1638
55.161
55.1583
55.1555
55.1528
55.15
55.1473
55.1445
55.1418
55.139
55.1363
55.1335
55.1308
55.128
55.1253
55.1225
55.1198
55.117
55.1143
55.1115
55.1088
55.1061
55.1033
55.1006
55.0978
55.0951
55.0923
55.0896
55.0869
55.0841
55.0814
55.0786
55.0759
55.0731
55.0704
55.0677
55.0649
55.0622
55.0595
55.0567
55.054
55.0512
55.0485
55.0458
55.043
55.0403
55.0376
55.0348
55.0321
55.0294
55.0266
55.0239
55.0212
55.0184
55.0157
55.013
55.0102
55.0075
55.0048
55.002
54.9993
54.9966
54.9938
54.9911
54.9884
54.9857
54.9829
54.9802
54.9775
54.9748
54.972
54.9693
54.9666
54.9638
54.9611
54.9584
54.9557
54.953
54.9502
54.9475
54.9448
54.9421
54.9393
54.9366
54.9339
54.9312
54.9285
54.9257
54.923
54.9203
54.9176
54.9149
54.9121
54.9094
54.9067
54.904
54.9013
54.8986
54.8958
54.8931
54.8904
54.8877
54.885
54.8823
54.8796
54.8768
54.8741
54.8714
54.8687
54.866
54.8633
54.8606
54.8579
54.8552
54.8524
54.8497
54.847
54.8443
54.8416
54.8389
54.8362
54.8335
54.8308
54.8281
54.8254
54.8227
54.82
54.8173
54.8146
54.8119
54.8091
54.8064
54.8037
54.801
54.7983
54.7956
54.7929
54.7902
54.7875
54.7848
54.7821
54.7794
54.7767
54.774
54.7713
54.7686
54.7659
54.7632
54.7606
54.7579
54.7552
54.7525
54.7498
54.7471
54.7444
54.7417
54.739
54.7363
54.7336
54.7309
54.7282
54.7255
54.7228
54.7201
54.7175
54.7148
54.7121
54.7094
54.7067
54.704
54.7013
54.6986
54.6959
54.6933
54.6906
54.6879
54.6852
54.6825
54.6798
54.6771
54.6745
54.6718
54.6691
54.6664
54.6637
54.661
54.6584
54.6557
54.653
54.6503
54.6476
54.645
54.6423
54.6396
54.6369
54.6342
54.6316
54.6289
54.6262
54.6235
54.6208
54.6182
54.6155
54.6128
54.6101
54.6075
54.6048
54.6021
54.5994
54.5968
54.5941
54.5914
54.5888
54.5861
54.5834
54.5807
54.5781
54.5754
54.5727
54.5701
54.5674
54.5647
54.562
54.5594
54.5567
54.554
54.5514
54.5487
54.546
54.5434
54.5407
54.538
54.5354
54.5327
54.5301
54.5274
54.5247
54.5221
54.5194
54.5167
54.5141
54.5114
54.5088
54.5061
54.5034
54.5008
54.4981
54.4955
54.4928
54.4901
54.4875
54.4848
54.4822
54.4795
54.4768
54.4742
54.4715
54.4689
54.4662
54.4636
54.4609
54.4583
54.4556
54.453
54.4503
54.4476
54.445
54.4423
54.4397
54.437
54.4344
54.4317
54.4291
54.4264
54.4238
54.4211
54.4185
54.4158
54.4132
54.4105
54.4079
54.4053
54.4026
54.4
54.3973
54.3947
54.392
54.3894
54.3867
54.3841
54.3815
54.3788
54.3762
54.3735
54.3709
54.3682
54.3656
54.363
54.3603
54.3577
54.355
54.3524
54.3498
54.3471
54.3445
54.3418
54.3392
54.3366
54.3339
54.3313
54.3287
54.326
54.3234
54.3208
54.3181
54.3155
54.3129
54.3102
54.3076
54.305
54.3023
54.2997
54.2971
54.2944
54.2918
54.2892
54.2865
54.2839
54.2813
54.2787
54.276
54.2734
54.2708
54.2681
54.2655
54.2629
54.2603
54.2576
54.255
54.2524
54.2498
54.2471
54.2445
54.2419
54.2393
54.2366
54.234
54.2314
54.2288
54.2262
54.2235
54.2209
54.2183
54.2157
54.2131
54.2104
54.2078
54.2052
54.2026
54.2
54.1974
54.1947
54.1921
54.1895
54.1869
54.1843
54.1817
54.179
54.1764
54.1738
54.1712
54.1686
54.166
54.1634
54.1608
54.1581
54.1555
54.1529
54.1503
54.1477
54.1451
54.1425
54.1399
54.1373
54.1347
54.132
54.1294
54.1268
54.1242
54.1216
54.119
54.1164
54.1138
54.1112
54.1086
54.106
54.1034
54.1008
54.0982
54.0956
54.093
54.0904
54.0878
54.0852
54.0826
54.08
54.0774
54.0748
54.0722
54.0696
54.067
54.0644
54.0618
54.0592
54.0566
54.054
54.0514
54.0488
54.0462
54.0436
54.041
54.0384
54.0358
54.0332
54.0306
54.028
54.0254
54.0228
54.0203
54.0177
54.0151
54.0125
54.0099
54.0073
54.0047
54.0021
53.9995
53.9969
53.9944
53.9918
53.9892
53.9866
53.984
53.9814
53.9788
53.9763
53.9737
53.9711
53.9685
53.9659
53.9633
53.9607
53.9582
53.9556
53.953
53.9504
53.9478
53.9453
53.9427
53.9401
53.9375
53.9349
53.9324
53.9298
53.9272
53.9246
53.922
53.9195
53.9169
53.9143
53.9117
53.9092
53.9066
53.904
53.9014
53.8989
53.8963
53.8937
53.8911
53.8886
53.886
53.8834
53.8808
53.8783
53.8757
53.8731
53.8706
53.868
53.8654
53.8629
53.8603
53.8577
53.8551
53.8526
53.85
53.8474
53.8449
53.8423
53.8397
53.8372
53.8346
53.832
53.8295
53.8269
53.8244
53.8218
53.8192
53.8167
53.8141
53.8115
53.809
53.8064
53.8039
53.8013
53.7987
53.7962
53.7936
53.7911
53.7885
53.7859
53.7834
53.7808
53.7783
53.7757
53.7732
53.7706
53.768
53.7655
53.7629
53.7604
53.7578
53.7553
53.7527
53.7502
53.7476
53.7451
53.7425
53.74
53.7374
53.7349
53.7323
53.7297
53.7272
53.7246
53.7221
53.7196
53.717
53.7145
53.7119
53.7094
53.7068
53.7043
53.7017
53.6992
53.6966
53.6941
53.6915
53.689
53.6865
53.6839
53.6814
53.6788
53.6763
53.6737
53.6712
53.6687
53.6661
53.6636
53.661
53.6585
53.656
53.6534
53.6509
53.6483
53.6458
53.6433
53.6407
53.6382
53.6356
53.6331
53.6306
53.628
53.6255
53.623
53.6204
53.6179
53.6154
53.6128
53.6103
53.6078
53.6052
53.6027
53.6002
53.5976
53.5951
53.5926
53.59
53.5875
53.585
53.5825
53.5799
53.5774
53.5749
53.5723
53.5698
53.5673
53.5648
53.5622
53.5597
53.5572
53.5547
53.5521
53.5496
53.5471
53.5446
53.542
53.5395
53.537
53.5345
53.532
53.5294
53.5269
53.5244
53.5219
53.5194
53.5168
53.5143
53.5118
53.5093
53.5068
53.5042
53.5017
53.4992
53.4967
53.4942
53.4917
53.4891
53.4866
53.4841
53.4816
53.4791
53.4766
53.4741
53.4715
53.469
53.4665
53.464
53.4615
53.459
53.4565
53.454
53.4515
53.4489
53.4464
53.4439
53.4414
53.4389
53.4364
53.4339
53.4314
53.4289
53.4264
53.4239
53.4214
53.4189
53.4164
53.4138
53.4113
53.4088
53.4063
53.4038
53.4013
53.3988
53.3963
53.3938
53.3913
53.3888
53.3863
53.3838
53.3813
53.3788
53.3763
53.3738
53.3713
53.3688
53.3663
53.3638
53.3613
53.3588
53.3563
53.3538
53.3514
53.3489
53.3464
53.3439
53.3414
53.3389
53.3364
53.3339
53.3314
53.3289
53.3264
53.3239
53.3214
53.3189
53.3165
53.314
53.3115
53.309
53.3065
53.304
53.3015
53.299
53.2965
53.2941
53.2916
53.2891
53.2866
53.2841
53.2816
53.2791
53.2767
53.2742
53.2717
53.2692
53.2667
53.2642
53.2618
53.2593
53.2568
53.2543
53.2518
53.2493
53.2469
53.2444
53.2419
53.2394
53.237
53.2345
53.232
53.2295
53.227
53.2246
53.2221
53.2196
53.2171
53.2147
53.2122
53.2097
53.2072
53.2048
53.2023
53.1998
53.1973
53.1949
53.1924
53.1899
53.1875
53.185
53.1825
53.18
53.1776
53.1751
53.1726
53.1702
53.1677
53.1652
53.1628
53.1603
53.1578
53.1554
53.1529
53.1504
53.148
53.1455
53.143
53.1406
53.1381
53.1356
53.1332
53.1307
53.1282
53.1258
53.1233
53.1209
53.1184
53.1159
53.1135
53.111
53.1086
53.1061
53.1036
53.1012
53.0987
53.0963
53.0938
53.0913
53.0889
53.0864
53.084
53.0815
53.0791
53.0766
53.0741
53.0717
53.0692
53.0668
53.0643
53.0619
53.0594
53.057
53.0545
53.0521
53.0496
53.0472
53.0447
53.0423
53.0398
53.0374
53.0349
53.0325
53.03
53.0276
53.0251
53.0227
53.0202
53.0178
53.0153
53.0129
53.0104
53.008
53.0056
53.0031
53.0007
52.9982
52.9958
52.9933
52.9909
52.9884
52.986
52.9836
52.9811
52.9787
52.9762
52.9738
52.9714
52.9689
52.9665
52.964
52.9616
52.9592
52.9567
52.9543
52.9519
52.9494
52.947
52.9445
52.9421
52.9397
52.9372
52.9348
52.9324
52.9299
52.9275
52.9251
52.9226
52.9202
52.9178
52.9153
52.9129
52.9105
52.9081
52.9056
52.9032
52.9008
52.8983
52.8959
52.8935
52.891
52.8886
52.8862
52.8838
52.8813
52.8789
52.8765
52.8741
52.8716
52.8692
52.8668
52.8644
52.8619
52.8595
52.8571
52.8547
52.8522
52.8498
52.8474
52.845
52.8426
52.8401
52.8377
52.8353
52.8329
52.8305
52.828
52.8256
52.8232
52.8208
52.8184
52.816
52.8135
52.8111
52.8087
52.8063
52.8039
52.8015
52.799
52.7966
52.7942
52.7918
52.7894
52.787
52.7846
52.7822
52.7797
52.7773
52.7749
52.7725
52.7701
52.7677
52.7653
52.7629
52.7605
52.7581
52.7556
52.7532
52.7508
52.7484
52.746
52.7436
52.7412
52.7388
52.7364
52.734
52.7316
52.7292
52.7268
52.7244
52.722
52.7196
52.7172
52.7148
52.7124
52.71
52.7076
52.7052
52.7028
52.7004
52.698
52.6956
52.6932
52.6908
52.6884
52.686
52.6836
52.6812
52.6788
52.6764
52.674
52.6716
52.6692
52.6668
52.6644
52.662
52.6596
52.6572
52.6548
52.6524
52.65
52.6477
52.6453
52.6429
52.6405
52.6381
52.6357
52.6333
52.6309
52.6285
52.6261
52.6238
52.6214
52.619
52.6166
52.6142
52.6118
52.6094
52.607
52.6047
52.6023
52.5999
52.5975
52.5951
52.5927
52.5904
52.588
52.5856
52.5832
52.5808
52.5784
52.5761
52.5737
52.5713
52.5689
52.5665
52.5642
52.5618
52.5594
52.557
52.5546
52.5523
52.5499
52.5475
52.5451
52.5428
52.5404
52.538
52.5356
52.5333
52.5309
52.5285
52.5261
52.5238
52.5214
52.519
52.5166
52.5143
52.5119
52.5095
52.5072
52.5048
52.5024
52.5
52.4977
52.4953
52.4929
52.4906
52.4882
52.4858
52.4835
52.4811
52.4787
52.4764
52.474
52.4716
52.4693
52.4669
52.4645
52.4622
52.4598
52.4574
52.4551
52.4527
52.4504
52.448
52.4456
52.4433
52.4409
52.4385
52.4362
52.4338
52.4315
52.4291
52.4268
52.4244
52.422
52.4197
52.4173
52.415
52.4126
52.4102
52.4079
52.4055
52.4032
52.4008
52.3985
52.3961
52.3938
52.3914
52.3891
52.3867
52.3843
52.382
52.3796
52.3773
52.3749
52.3726
52.3702
52.3679
52.3655
52.3632
52.3608
52.3585
52.3561
52.3538
52.3514
52.3491
52.3468
52.3444
52.3421
52.3397
52.3374
52.335
52.3327
52.3303
52.328
52.3256
52.3233
52.321
52.3186
52.3163
52.3139
52.3116
52.3092
52.3069
52.3046
52.3022
52.2999
52.2975
52.2952
52.2929
52.2905
52.2882
52.2859
52.2835
52.2812
52.2788
52.2765
52.2742
52.2718
52.2695
52.2672
52.2648
52.2625
52.2602
52.2578
52.2555
52.2532
52.2508
52.2485
52.2462
52.2438
52.2415
52.2392
52.2368
52.2345
52.2322
52.2299
52.2275
52.2252
52.2229
52.2205
52.2182
52.2159
52.2136
52.2112
52.2089
52.2066
52.2042
52.2019
52.1996
52.1973
52.195
52.1926
52.1903
52.188
52.1857
52.1833
52.181
52.1787
52.1764
52.174
52.1717
52.1694
52.1671
52.1648
52.1624
52.1601
52.1578
52.1555
52.1532
52.1509
52.1485
52.1462
52.1439
52.1416
52.1393
52.137
52.1346
52.1323
52.13
52.1277
52.1254
52.1231
52.1208
52.1184
52.1161
52.1138
52.1115
52.1092
52.1069
52.1046
52.1023
52.1
52.0977
52.0953
52.093
52.0907
52.0884
52.0861
52.0838
52.0815
52.0792
52.0769
52.0746
52.0723
52.07
52.0677
52.0654
52.0631
52.0607
52.0584
52.0561
52.0538
52.0515
52.0492
52.0469
52.0446
52.0423
52.04
52.0377
52.0354
52.0331
52.0308
52.0285
52.0262
52.0239
52.0216
52.0193
52.017
52.0147
52.0124
52.0102
52.0079
52.0056
52.0033
52.001
51.9987
51.9964
51.9941
51.9918
51.9895
51.9872
51.9849
51.9826
51.9803
51.978
51.9758
51.9735
51.9712
51.9689
51.9666
51.9643
51.962
51.9597
51.9574
51.9551
51.9529
51.9506
51.9483
51.946
51.9437
51.9414
51.9391
51.9369
51.9346
51.9323
51.93
51.9277
51.9254
51.9232
51.9209
51.9186
51.9163
51.914
51.9117
51.9095
51.9072
51.9049
51.9026
51.9003
51.8981
51.8958
51.8935
51.8912
51.889
51.8867
51.8844
51.8821
51.8798
51.8776
51.8753
51.873
51.8707
51.8685
51.8662
51.8639
51.8616
51.8594
51.8571
51.8548
51.8526
51.8503
51.848
51.8457
51.8435
51.8412
51.8389
51.8367
51.8344
51.8321
51.8299
51.8276
51.8253
51.8231
51.8208
51.8185
51.8162
51.814
51.8117
51.8095
51.8072
51.8049
51.8027
51.8004
51.7981
51.7959
51.7936
51.7913
51.7891
51.7868
51.7846
51.7823
51.78
51.7778
51.7755
51.7732
51.771
51.7687
51.7665
51.7642
51.762
51.7597
51.7574
51.7552
51.7529
51.7507
51.7484
51.7462
51.7439
51.7416
51.7394
51.7371
51.7349
51.7326
51.7304
51.7281
51.7259
51.7236
51.7214
51.7191
51.7169
51.7146
51.7124
51.7101
51.7079
51.7056
51.7034
51.7011
51.6989
51.6966
51.6944
51.6921
51.6899
51.6876
51.6854
51.6831
51.6809
51.6786
51.6764
51.6742
51.6719
51.6697
51.6674
51.6652
51.6629
51.6607
51.6584
51.6562
51.654
51.6517
51.6495
51.6472
51.645
51.6428
51.6405
51.6383
51.636
51.6338
51.6316
51.6293
51.6271
51.6249
51.6226
51.6204
51.6181
51.6159
51.6137
51.6114
51.6092
51.607
51.6047
51.6025
51.6003
51.598
51.5958
51.5936
51.5913
51.5891
51.5869
51.5846
51.5824
51.5802
51.578
51.5757
51.5735
51.5713
51.569
51.5668
51.5646
51.5624
51.5601
51.5579
51.5557
51.5534
51.5512
51.549
51.5468
51.5445
51.5423
51.5401
51.5379
51.5356
51.5334
51.5312
51.529
51.5268
51.5245
51.5223
51.5201
51.5179
51.5157
51.5134
51.5112
51.509
51.5068
51.5046
51.5023
51.5001
51.4979
51.4957
51.4935
51.4913
51.489
51.4868
51.4846
51.4824
51.4802
51.478
51.4757
51.4735
51.4713
51.4691
51.4669
51.4647
51.4625
51.4603
51.458
51.4558
51.4536
51.4514
51.4492
51.447
51.4448
51.4426
51.4404
51.4382
51.4359
51.4337
51.4315
51.4293
51.4271
51.4249
51.4227
51.4205
51.4183
51.4161
51.4139
51.4117
51.4095
51.4073
51.4051
51.4029
51.4007
51.3985
51.3963
51.3941
51.3919
51.3897
51.3875
51.3853
51.3831
51.3809
51.3787
51.3765
51.3743
51.3721
51.3699
51.3677
51.3655
51.3633
51.3611
51.3589
51.3567
51.3545
51.3523
51.3501
51.3479
51.3457
51.3435
51.3413
51.3391
51.3369
51.3348
51.3326
51.3304
51.3282
51.326
51.3238
51.3216
51.3194
51.3172
51.315
51.3128
51.3107
51.3085
51.3063
51.3041
51.3019
51.2997
51.2975
51.2954
51.2932
51.291
51.2888
51.2866
51.2844
51.2822
51.2801
51.2779
51.2757
51.2735
51.2713
51.2691
51.267
51.2648
51.2626
51.2604
51.2582
51.2561
51.2539
51.2517
51.2495
51.2473
51.2452
51.243
51.2408
51.2386
51.2365
51.2343
51.2321
51.2299
51.2278
51.2256
51.2234
51.2212
51.2191
51.2169
51.2147
51.2125
51.2104
51.2082
51.206
51.2038
51.2017
51.1995
51.1973
51.1952
51.193
51.1908
51.1887
51.1865
51.1843
51.1821
51.18
51.1778
51.1756
51.1735
51.1713
51.1691
51.167
51.1648
51.1626
51.1605
51.1583
51.1562
51.154
51.1518
51.1497
51.1475
51.1453
51.1432
51.141
51.1389
51.1367
51.1345
51.1324
51.1302
51.128
51.1259
51.1237
51.1216
51.1194
51.1173
51.1151
51.1129
51.1108
51.1086
51.1065
51.1043
51.1022
51.1
51.0978
51.0957
51.0935
51.0914
51.0892
51.0871
51.0849
51.0828
51.0806
51.0785
51.0763
51.0742
51.072
51.0699
51.0677
51.0656
51.0634
51.0613
51.0591
51.057
51.0548
51.0527
51.0505
51.0484
51.0462
51.0441
51.0419
51.0398
51.0376
51.0355
51.0333
51.0312
51.0291
51.0269
51.0248
51.0226
51.0205
51.0183
51.0162
51.0141
51.0119
51.0098
51.0076
51.0055
51.0034
51.0012
50.9991
50.9969
50.9948
50.9927
50.9905
50.9884
50.9862
50.9841
50.982
50.9798
50.9777
50.9756
50.9734
50.9713
50.9692
50.967
50.9649
50.9628
50.9606
50.9585
50.9564
50.9542
50.9521
50.95
50.9478
50.9457
50.9436
50.9414
50.9393
50.9372
50.935
50.9329
50.9308
50.9287
50.9265
50.9244
50.9223
50.9202
50.918
50.9159
50.9138
50.9116
50.9095
50.9074
50.9053
50.9031
50.901
50.8989
50.8968
50.8947
50.8925
50.8904
50.8883
50.8862
50.884
50.8819
50.8798
50.8777
50.8756
50.8734
50.8713
50.8692
50.8671
50.865
50.8629
50.8607
50.8586
50.8565