# vtk DataFile Version 2.0
vtk output
ASCII
DATASET STRUCTURED_GRID
DIMENSIONS 50 10 30
POINTS 15000 float
0 0 0
1 0 0
2 0 0
3 0 0
4 0 0
5 0 0
6 0 0
7 0 0
8 0 0
9 0 0
10 0 0
11 0 0
12 0 0
13 0 0
14 0 0
15 0 0
16 0 0
17 0 0
18 0 0
19 0 0
20 0 0
21 0 0
22 0 0
23 0 0
24 0 0
25 0 0
26 0 0
27 0 0
28 0 0
29 0 0
30 0 0
31 0 0
32 0 0
33 0 0
34 0 0
35 0 0
36 0 0
37 0 0
38 0 0
39 0 0
40 0 0
41 0 0
42 0 0
43 0 0
44 0 0
45 0 0
46 0 0
47 0 0
48 0 0
49 0 0
0 1 0
1 1 0
2 1 0
3 1 0
4 1 0
5 1 0
6 1 0
7 1 0
8 1 0
9 1 0
10 1 0
11 1 0
12 1 0
13 1 0
14 1 0
15 1 0
16 1 0
17 1 0
18 1 0
19 1 0
20 1 0
21 1 0
22 1 0
23 1 0
24 1 0
25 1 0
26 1 0
27 1 0
28 1 0
29 1 0
30 1 0
31 1 0
32 1 0
33 1 0
34 1 0
35 1 0
36 1 0
37 1 0
38 1 0
39 1 0
40 1 0
41 1 0
42 1 0
43 1 0
44 1 0
45 1 0
46 1 0
47 1 0
48 1 0
49 1 0
0 2 0
1 2 0
2 2 0
3 2 0
4 2 0
5 2 0
6 2 0
7 2 0
8 2 0
9 2 0
10 2 0
11 2 0
12 2 0
13 2 0
14 2 0
15 2 0
16 2 0
17 2 0
18 2 0
19 2 0
20 2 0
21 2 0
22 2 0
23 2 0
24 2 0
25 2 0
26 2 0
27 2 0
28 2 0
29 2 0
30 2 0
31 2 0
32 2 0
33 2 0
34 2 0
35 2 0
36 2 0
37 2 0
38 2 0
39 2 0
40 2 0
41 2 0
42 2 0
43 2 0
44 2 0
45 2 0
46 2 0
47 2 0
48 2 0
49 2 0
0 3 0
1 3 0
2 3 0
3 3 0
4 3 0
5 3 0
6 3 0
7 3 0
8 3 0
9 3 0
10 3 0
11 3 0
12 3 0
13 3 0
14 3 0
15 3 0
16 3 0
17 3 0
18 3 0
19 3 0
20 3 0
21 3 0
22 3 0
23 3 0
24 3 0
25 3 0
26 3 0
27 3 0
28 3 0
29 3 0
30 3 0
31 3 0
32 3 0
33 3 0
34 3 0
35 3 0
36 3 0
37 3 0
38 3 0
39 3 0
40 3 0
41 3 0
42 3 0
43 3 0
44 3 0
45 3 0
46 3 0
47 3 0
48 3 0
49 3 0
0 4 0
1 4 0
2 4 0
3 4 0
4 4 0
5 4 0
6 4 0
7 4 0
8 4 0
9 4 0
10 4 0
11 4 0
12 4 0
13 4 0
14 4 0
15 4 0
16 4 0
17 4 0
18 4 0
19 4 0
20 4 0
21 4 0
22 4 0
23 4 0
24 4 0
25 4 0
26 4 0
27 4 0
28 4 0
29 4 0
30 4 0
31 4 0
32 4 0
33 4 0
34 4 0
35 4 0
36 4 0
37 4 0
38 4 0
39 4 0
40 4 0
41 4 0
42 4 0
43 4 0
44 4 0
45 4 0
46 4 0
47 4 0
48 4 0
49 4 0
0 5 0
1 5 0
2 5 0
3 5 0
4 5 0
5 5 0
6 5 0
7 5 0
8 5 0
9 5 0
10 5 0
11 5 0
12 5 0
13 5 0
14 5 0
15 5 0
16 5 0
17 5 0
18 5 0
19 5 0
20 5 0
21 5 0
22 5 0
23 5 0
24 5 0
25 5 0
26 5 0
27 5 0
28 5 0
29 5 0
30 5 0
31 5 0
32 5 0
33 5 0
34 5 0
35 5 0
36 5 0
37 5 0
38 5 0
39 5 0
40 5 0
41 5 0
42 5 0
43 5 0
44 5 0
45 5 0
46 5 0
47 5 0
48 5 0
49 5 0
0 6 0
1 6 0
2 6 0
3 6 0
4 6 0
5 6 0
6 6 0
7 6 0
8 6 0
9 6 0
10 6 0
11 6 0
12 6 0
13 6 0
14 6 0
15 6 0
16 6 0
17 6 0
18 6 0
19 6 0
20 6 0
21 6 0
22 6 0
23 6 0
24 6 0
25 6 0
26 6 0
27 6 0
28 6 0
29 6 0
30 6 0
31 6 0
32 6 0
33 6 0
34 6 0
35 6 0
36 6 0
37 6 0
38 6 0
39 6 0
40 6 0
41 6 0
42 6 0
43 6 0
44 6 0
45 6 0
46 6 0
47 6 0
48 6 0
49 6 0
0 7 0
1 7 0
2 7 0
3 7 0
4 7 0
5 7 0
6 7 0
7 7 0
8 7 0
9 7 0
10 7 0
11 7 0
12 7 0
13 7 0
14 7 0
15 7 0
16 7 0
17 7 0
18 7 0
19 7 0
20 7 0
21 7 0
22 7 0
23 7 0
24 7 0
25 7 0
26 7 0
27 7 0
28 7 0
29 7 0
30 7 0
31 7 0
32 7 0
33 7 0
34 7 0
35 7 0
36 7 0
37 7 0
38 7 0
39 7 0
40 7 0
41 7 0
42 7 0
43 7 0
44 7 0
45 7 0
46 7 0
47 7 0
48 7 0
49 7 0
0 8 0
1 8 0
2 8 0
3 8 0
4 8 0
5 8 0
6 8 0
7 8 0
8 8 0
9 8 0
10 8 0
11 8 0
12 8 0
13 8 0
14 8 0
15 8 0
16 8 0
17 8 0
18 8 0
19 8 0
20 8 0
21 8 0
22 8 0
23 8 0
24 8 0
25 8 0
26 8 0
27 8 0
28 8 0
29 8 0
30 8 0
31 8 0
32 8 0
33 8 0
34 8 0
35 8 0
36 8 0
37 8 0
38 8 0
39 8 0
40 8 0
41 8 0
42 8 0
43 8 0
44 8 0
45 8 0
46 8 0
47 8 0
48 8 0
49 8 0
0 9 0
1 9 0
2 9 0
3 9 0
4 9 0
5 9 0
6 9 0
7 9 0
8 9 0
9 9 0
10 9 0
11 9 0
12 9 0
13 9 0
14 9 0
15 9 0
16 9 0
17 9 0
18 9 0
19 9 0
20 9 0
21 9 0
22 9 0
23 9 0
24 9 0
25 9 0
26 9 0
27 9 0
28 9 0
29 9 0
30 9 0
31 9 0
32 9 0
33 9 0
34 9 0
35 9 0
36 9 0
37 9 0
38 9 0
39 9 0
40 9 0
41 9 0
42 9 0
43 9 0
44 9 0
45 9 0
46 9 0
47 9 0
48 9 0
49 9 0
0 0 1
1 0 1
2 0 1
3 0 1
4 0 1
5 0 1
6 0 1
7 0 1
8 0 1
9 0 1
10 0 1
11 0 1
12 0 1
13 0 1
14 0 1
15 0 1
16 0 1
17 0 1
18 0 1
19 0 1
20 0 1
21 0 1
22 0 1
23 0 1
24 0 1
25 0 1
26 0 1
27 0 1
28 0 1
29 0 1
30 0 1
31 0 1
32 0 1
33 0 1
34 0 1
35 0 1
36 0 1
37 0 1
38 0 1
39 0 1
40 0 1
41 0 1
42 0 1
43 0 1
44 0 1
45 0 1
46 0 1
47 0 1
48 0 1
49 0 1
0 1 1
1 1 1
2 1 1
3 1 1
4 1 1
5 1 1
6 1 1
7 1 1
8 1 1
9 1 1
10 1 1
11 1 1
12 1 1
13 1 1
14 1 1
15 1 1
16 1 1
17 1 1
18 1 1
19 1 1
20 1 1
21 1 1
22 1 1
23 1 1
24 1 1
25 1 1
26 1 1
27 1 1
28 1 1
29 1 1
30 1 1
31 1 1
32 1 1
33 1 1
34 1 1
35 1 1
36 1 1
37 1 1
38 1 1
39 1 1
40 1 1
41 1 1
42 1 1
43 1 1
44 1 1
45 1 1
46 1 1
47 1 1
48 1 1
49 1 1
0 2 1
1 2 1
2 2 1
3 2 1
4 2 1
5 2 1
6 2 1
7 2 1
8 2 1
9 2 1
10 2 1
11 2 1
12 2 1
13 2 1
14 2 1
15 2 1
16 2 1
17 2 1
18 2 1
19 2 1
20 2 1
21 2 1
22 2 1
23 2 1
24 2 1
25 2 1
26 2 1
27 2 1
28 2 1
29 2 1
30 2 1
31 2 1
32 2 1
33 2 1
34 2 1
35 2 1
36 2 1
37 2 1
38 2 1
39 2 1
40 2 1
41 2 1
42 2 1
43 2 1
44 2 1
45 2 1
46 2 1
47 2 1
48 2 1
49 2 1
0 3 1
1 3 1
2 3 1
3 3 1
4 3 1
5 3 1
6 3 1
7 3 1
8 3 1
9 3 1
10 3 1
11 3 1
12 3 1
13 3 1
14 3 1
15 3 1
16 3 1
17 3 1
18 3 1
19 3 1
20 3 1
21 3 1
22 3 1
23 3 1
24 3 1
25 3 1
26 3 1
27 3 1
28 3 1
29 3 1
30 3 1
31 3 1
32 3 1
33 3 1
34 3 1
35 3 1
36 3 1
37 3 1
38 3 1
39 3 1
40 3 1
41 3 1
42 3 1
43 3 1
44 3 1
45 3 1
46 3 1
47 3 1
48 3 1
49 3 1
0 4 1
1 4 1
2 4 1
3 4 1
4 4 1
5 4 1
6 4 1
7 4 1
8 4 1
9 4 1
10 4 1
11 4 1
12 4 1
13 4 1
14 4 1
15 4 1
16 4 1
17 4 1
18 4 1
19 4 1
20 4 1
21 4 1
22 4 1
23 4 1
24 4 1
25 4 1
26 4 1
27 4 1
28 4 1
29 4 1
30 4 1
31 4 1
32 4 1
33 4 1
34 4 1
35 4 1
36 4 1
37 4 1
38 4 1
39 4 1
40 4 1
41 4 1
42 4 1
43 4 1
44 4 1
45 4 1
46 4 1
47 4 1
48 4 1
49 4 1
0 5 1
1 5 1
2 5 1
3 5 1
4 5 1
5 5 1
6 5 1
7 5 1
8 5 1
9 5 1
10 5 1
11 5 1
12 5 1
13 5 1
14 5 1
15 5 1
16 5 1
17 5 1
18 5 1
19 5 1
20 5 1
21 5 1
22 5 1
23 5 1
24 5 1
25 5 1
26 5 1
27 5 1
28 5 1
29 5 1
30 5 1
31 5 1
32 5 1
33 5 1
34 5 1
35 5 1
36 5 1
37 5 1
38 5 1
39 5 1
40 5 1
41 5 1
42 5 1
43 5 1
44 5 1
45 5 1
46 5 1
47 5 1
48 5 1
49 5 1
0 6 1
1 6 1
2 6 1
3 6 1
4 6 1
5 6 1
6 6 1
7 6 1
8 6 1
9 6 1
10 6 1
11 6 1
12 6 1
13 6 1
14 6 1
15 6 1
16 6 1
17 6 1
18 6 1
19 6 1
20 6 1
21 6 1
22 6 1
23 6 1
24 6 1
25 6 1
26 6 1
27 6 1
28 6 1
29 6 1
30 6 1
31 6 1
32 6 1
33 6 1
34 6 1
35 6 1
36 6 1
37 6 1
38 6 1
39 6 1
40 6 1
41 6 1
42 6 1
43 6 1
44 6 1
45 6 1
46 6 1
47 6 1
48 6 1
49 6 1
0 7 1
1 7 1
2 7 1
3 7 1
4 7 1
5 7 1
6 7 1
7 7 1
8 7 1
9 7 1
10 7 1
11 7 1
12 7 1
13 7 1
14 7 1
15 7 1
16 7 1
17 7 1
18 7 1
19 7 1
20 7 1
21 7 1
22 7 1
23 7 1
24 7 1
25 7 1
26 7 1
27 7 1
28 7 1
29 7 1
30 7 1
31 7 1
32 7 1
33 7 1
34 7 1
35 7 1
36 7 1
37 7 1
38 7 1
39 7 1
40 7 1
41 7 1
42 7 1
43 7 1
44 7 1
45 7 1
46 7 1
47 7 1
48 7 1
49 7 1
0 8 1
1 8 1
2 8 1
3 8 1
4 8 1
5 8 1
6 8 1
7 8 1
8 8 1
9 8 1
10 8 1
11 8 1
12 8 1
13 8 1
14 8 1
15 8 1
16 8 1
17 8 1
18 8 1
19 8 1
20 8 1
21 8 1
22 8 1
23 8 1
24 8 1
25 8 1
26 8 1
27 8 1
28 8 1
29 8 1
30 8 1
31 8 1
32 8 1
33 8 1
34 8 1
35 8 1
36 8 1
37 8 1
38 8 1
39 8 1
40 8 1
41 8 1
42 8 1
43 8 1
44 8 1
45 8 1
46 8 1
47 8 1
48 8 1
49 8 1
0 9 1
1 9 1
2 9 1
3 9 1
4 9 1
5 9 1
6 9 1
7 9 1
8 9 1
9 9 1
10 9 1
11 9 1
12 9 1
13 9 1
14 9 1
15 9 1
16 9 1
17 9 1
18 9 1
19 9 1
20 9 1
21 9 1
22 9 1
23 9 1
24 9 1
25 9 1
26 9 1
27 9 1
28 9 1
29 9 1
30 9 1
31 9 1
32 9 1
33 9 1
34 9 1
35 9 1
36 9 1
37 9 1
38 9 1
39 9 1
40 9 1
41 9 1
42 9 1
43 9 1
44 9 1
45 9 1
46 9 1
47 9 1
48 9 1
49 9 1
0 0 2
1 0 2
2 0 2
3 0 2
4 0 2
5 0 2
6 0 2
7 0 2
8 0 2
9 0 2
10 0 2
11 0 2
12 0 2
13 0 2
14 0 2
15 0 2
16 0 2
17 0 2
18 0 2
19 0 2
20 0 2
21 0 2
22 0 2
23 0 2
24 0 2
25 0 2
26 0 2
27 0 2
28 0 2
29 0 2
30 0 2
31 0 2
32 0 2
33 0 2
34 0 2
35 0 2
36 0 2
37 0 2
38 0 2
39 0 2
40 0 2
41 0 2
42 0 2
43 0 2
44 0 2
45 0 2
46 0 2
47 0 2
48 0 2
49 0 2
0 1 2
1 1 2
2 1 2
3 1 2
4 1 2
5 1 2
6 1 2
7 1 2
8 1 2
9 1 2
10 1 2
11 1 2
12 1 2
13 1 2
14 1 2
15 1 2
16 1 2
17 1 2
18 1 2
19 1 2
20 1 2
21 1 2
22 1 2
23 1 2
24 1 2
25 1 2
26 1 2
27 1 2
28 1 2
29 1 2
30 1 2
31 1 2
32 1 2
33 1 2
34 1 2
35 1 2
36 1 2
37 1 2
38 1 2
39 1 2
40 1 2
41 1 2
42 1 2
43 1 2
44 1 2
45 1 2
46 1 2
47 1 2
48 1 2
49 1 2
0 2 2
1 2 2
2 2 2
3 2 2
4 2 2
5 2 2
6 2 2
7 2 2
8 2 2
9 2 2
10 2 2
11 2 2
12 2 2
13 2 2
14 2 2
15 2 2
16 2 2
17 2 2
18 2 2
19 2 2
20 2 2
21 2 2
22 2 2
23 2 2
24 2 2
25 2 2
26 2 2
27 2 2
28 2 2
29 2 2
30 2 2
31 2 2
32 2 2
33 2 2
34 2 2
35 2 2
36 2 2
37 2 2
38 2 2
39 2 2
40 2 2
41 2 2
42 2 2
43 2 2
44 2 2
45 2 2
46 2 2
47 2 2
48 2 2
49 2 2
0 3 2
1 3 2
2 3 2
3 3 2
4 3 2
5 3 2
6 3 2
7 3 2
8 3 2
9 3 2
10 3 2
11 3 2
12 3 2
13 3 2
14 3 2
15 3 2
16 3 2
17 3 2
18 3 2
19 3 2
20 3 2
21 3 2
22 3 2
23 3 2
24 3 2
25 3 2
26 3 2
27 3 2
28 3 2
29 3 2
30 3 2
31 3 2
32 3 2
33 3 2
34 3 2
35 3 2
36 3 2
37 3 2
38 3 2
39 3 2
40 3 2
41 3 2
42 3 2
43 3 2
44 3 2
45 3 2
46 3 2
47 3 2
48 3 2
49 3 2
0 4 2
1 4 2
2 4 2
3 4 2
4 4 2
5 4 2
6 4 2
7 4 2
8 4 2
9 4 2
10 4 2
11 4 2
12 4 2
13 4 2
14 4 2
15 4 2
16 4 2
17 4 2
18 4 2
19 4 2
20 4 2
21 4 2
22 4 2
23 4 2
24 4 2
25 4 2
26 4 2
27 4 2
28 4 2
29 4 2
30 4 2
31 4 2
32 4 2
33 4 2
34 4 2
35 4 2
36 4 2
37 4 2
38 4 2
39 4 2
40 4 2
41 4 2
42 4 2
43 4 2
44 4 2
45 4 2
46 4 2
47 4 2
48 4 2
49 4 2
0 5 2
1 5 2
2 5 2
3 5 2
4 5 2
5 5 2
6 5 2
7 5 2
8 5 2
9 5 2
10 5 2
11 5 2
12 5 2
13 5 2
14 5 2
15 5 2
16 5 2
17 5 2
18 5 2
19 5 2
20 5 2
21 5 2
22 5 2
23 5 2
24 5 2
25 5 2
26 5 2
27 5 2
28 5 2
29 5 2
30 5 2
31 5 2
32 5 2
33 5 2
34 5 2
35 5 2
36 5 2
37 5 2
38 5 2
39 5 2
40 5 2
41 5 2
42 5 2
43 5 2
44 5 2
45 5 2
46 5 2
47 5 2
48 5 2
49 5 2
0 6 2
1 6 2
2 6 2
3 6 2
4 6 2
5 6 2
6 6 2
7 6 2
8 6 2
9 6 2
10 6 2
11 6 2
12 6 2
13 6 2
14 6 2
15 6 2
16 6 2
17 6 2
18 6 2
19 6 2
20 6 2
21 6 2
22 6 2
23 6 2
24 6 2
25 6 2
26 6 2
27 6 2
28 6 2
29 6 2
30 6 2
31 6 2
32 6 2
33 6 2
34 6 2
35 6 2
36 6 2
37 6 2
38 6 2
39 6 2
40 6 2
41 6 2
42 6 2
43 6 2
44 6 2
45 6 2
46 6 2
47 6 2
48 6 2
49 6 2
0 7 2
1 7 2
2 7 2
3 7 2
4 7 2
5 7 2
6 7 2
7 7 2
8 7 2
9 7 2
10 7 2
11 7 2
12 7 2
13 7 2
14 7 2
15 7 2
16 7 2
17 7 2
18 7 2
19 7 2
20 7 2
21 7 2
22 7 2
23 7 2
24 7 2
25 7 2
26 7 2
27 7 2
28 7 2
29 7 2
30 7 2
31 7 2
32 7 2
33 7 2
34 7 2
35 7 2
36 7 2
37 7 2
38 7 2
39 7 2
40 7 2
41 7 2
42 7 2
43 7 2
44 7 2
45 7 2
46 7 2
47 7 2
48 7 2
49 7 2
0 8 2
1 8 2
2 8 2
3 8 2
4 8 2
5 8 2
6 8 2
7 8 2
8 8 2
9 8 2
10 8 2
11 8 2
12 8 2
13 8 2
14 8 2
15 8 2
16 8 2
17 8 2
18 8 2
19 8 2
20 8 2
21 8 2
22 8 2
23 8 2
24 8 2
25 8 2
26 8 2
27 8 2
28 8 2
29 8 2
30 8 2
31 8 2
32 8 2
33 8 2
34 8 2
35 8 2
36 8 2
37 8 2
38 8 2
39 8 2
40 8 2
41 8 2
42 8 2
43 8 2
44 8 2
45 8 2
46 8 2
47 8 2
48 8 2
49 8 2
0 9 2
1 9 2
2 9 2
3 9 2
4 9 2
[...]
POINT_DATA 15000
SCALARS sol306 float
LOOKUP_TABLE default
58.4083
58.4052
58.4022
58.3991
58.3961
58.3931
58.39
58.387
58.3839
58.3809
58.3778
58.3748
58.3717
58.3687
58.3656
58.3626
58.3596
58.3565
58.3535
58.3504
58.3474
58.3444
58.3413
58.3383
58.3352
58.3322
58.3292
58.3261
58.3231
58.32
58.317
58.314
58.3109
58.3079
58.3049
58.3018
58.2988
58.2958
58.2927
58.2897
58.2867
58.2836
58.2806
58.2776
58.2745
58.2715
58.2685
58.2654
58.2624
58.2594
58.2563
58.2533
58.2503
58.2473
58.2442
58.2412
58.2382
58.2352
58.2321
58.2291
58.2261
58.2231
58.22
58.217
58.214
58.211
58.2079
58.2049
58.2019
58.1989
58.1959
58.1928
58.1898
58.1868
58.1838
58.1808
58.1777
58.1747
58.1717
58.1687
58.1657
58.1627
58.1596
58.1566
58.1536
58.1506
58.1476
58.1446
58.1415
58.1385
58.1355
58.1325
58.1295
58.1265
58.1235
58.1205
58.1175
58.1144
58.1114
58.1084
58.1054
58.1024
58.0994
58.0964
58.0934
58.0904
58.0874
58.0844
58.0814
58.0784
58.0753
58.0723
58.0693
58.0663
58.0633
58.0603
58.0573
58.0543
58.0513
58.0483
58.0453
58.0423
58.0393
58.0363
58.0333
58.0303
58.0273
58.0243
58.0213
58.0183
58.0153
58.0123
58.0093
58.0063
58.0034
58.0004
57.9974
57.9944
57.9914
57.9884
57.9854
57.9824
57.9794
57.9764
57.9734
57.9704
57.9674
57.9645
57.9615
57.9585
57.9555
57.9525
57.9495
57.9465
57.9435
57.9405
57.9376
57.9346
57.9316
57.9286
57.9256
57.9226
57.9197
57.9167
57.9137
57.9107
57.9077
57.9047
57.9018
57.8988
57.8958
57.8928
57.8898
57.8869
57.8839
57.8809
57.8779
57.8749
57.872
57.869
57.866
57.863
57.8601
57.8571
57.8541
57.8511
57.8482
57.8452
57.8422
57.8392
57.8363
57.8333
57.8303
57.8273
57.8244
57.8214
57.8184
57.8155
57.8125
57.8095
57.8066
57.8036
57.8006
57.7977
57.7947
57.7917
57.7888
57.7858
57.7828
57.7799
57.7769
57.7739
57.771
57.768
57.765
57.7621
57.7591
57.7561
57.7532
57.7502
57.7473
57.7443
57.7413
57.7384
57.7354
57.7325
57.7295
57.7265
57.7236
57.7206
57.7177
57.7147
57.7118
57.7088
57.7059
57.7029
57.6999
57.697
57.694
57.6911
57.6881
57.6852
57.6822
57.6793
57.6763
57.6734
57.6704
57.6675
57.6645
57.6616
57.6586
57.6557
57.6527
57.6498
57.6468
57.6439
57.6409
57.638
57.635
57.6321
57.6292
57.6262
57.6233
57.6203
57.6174
57.6144
57.6115
57.6086
57.6056
57.6027
57.5997
57.5968
57.5938
57.5909
57.588
57.585
57.5821
57.5792
57.5762
57.5733
57.5703
57.5674
57.5645
57.5615
57.5586
57.5557
57.5527
57.5498
57.5469
57.5439
57.541
57.5381
57.5351
57.5322
57.5293
57.5263
57.5234
57.5205
57.5175
57.5146
57.5117
57.5088
57.5058
57.5029
57.5
57.497
57.4941
57.4912
57.4883
57.4853
57.4824
57.4795
57.4766
57.4736
57.4707
57.4678
57.4649
57.462
57.459
57.4561
57.4532
57.4503
57.4473
57.4444
57.4415
57.4386
57.4357
57.4328
57.4298
57.4269
57.424
57.4211
57.4182
57.4152
57.4123
57.4094
57.4065
57.4036
57.4007
57.3978
57.3948
57.3919
57.389
57.3861
57.3832
57.3803
57.3774
57.3745
57.3716
57.3686
57.3657
57.3628
57.3599
57.357
57.3541
57.3512
57.3483
57.3454
57.3425
57.3396
57.3367
57.3338
57.3309
57.328
57.325
57.3221
57.3192
57.3163
57.3134
57.3105
57.3076
57.3047
57.3018
57.2989
57.296
57.2931
57.2902
57.2873
57.2844
57.2815
57.2786
57.2757
57.2728
57.27
57.2671
57.2642
57.2613
57.2584
57.2555
57.2526
57.2497
57.2468
57.2439
57.241
57.2381
57.2352
57.2323
57.2294
57.2266
57.2237
57.2208
57.2179
57.215
57.2121
57.2092
57.2063
57.2034
57.2006
57.1977
57.1948
57.1919
57.189
57.1861
57.1832
57.1804
57.1775
57.1746
57.1717
57.1688
57.1659
57.1631
57.1602
57.1573
57.1544
57.1515
57.1487
57.1458
57.1429
57.14
57.1371
57.1343
57.1314
57.1285
57.1256
57.1228
57.1199
57.117
57.1141
57.1113
57.1084
57.1055
57.1026
57.0998
57.0969
57.094
57.0911
57.0883
57.0854
57.0825
57.0797
57.0768
57.0739
57.0711
57.0682
57.0653
57.0624
57.0596
57.0567
57.0538
57.051
57.0481
57.0452
57.0424
57.0395
57.0367
57.0338
57.0309
57.0281
57.0252
57.0223
57.0195
57.0166
57.0138
57.0109
57.008
57.0052
57.0023
56.9994
56.9966
56.9937
56.9909
56.988
56.9852
56.9823
56.9794
56.9766
56.9737
56.9709
56.968
56.9652
56.9623
56.9595
56.9566
56.9538
56.9509
56.948
56.9452
56.9423
56.9395
56.9366
56.9338
56.9309
56.9281
56.9252
56.9224
56.9195
56.9167
56.9138
56.911
56.9082
56.9053
56.9025
56.8996
56.8968
56.8939
56.8911
56.8882
56.8854
56.8825
56.8797
56.8769
56.874
56.8712
56.8683
56.8655
56.8627
56.8598
56.857
56.8541
56.8513
56.8485
56.8456
56.8428
56.8399
56.8371
56.8343
56.8314
56.8286
56.8258
56.8229
56.8201
56.8173
56.8144
56.8116
56.8088
56.8059
56.8031
56.8003
56.7974
56.7946
56.7918
56.7889
56.7861
56.7833
56.7804
56.7776
56.7748
56.772
56.7691
56.7663
56.7635
56.7606
56.7578
56.755
56.7522
56.7493
56.7465
56.7437
56.7409
56.738
56.7352
56.7324
56.7296
56.7268
56.7239
56.7211
56.7183
56.7155
56.7126
56.7098
56.707
56.7042
56.7014
56.6986
56.6957
56.6929
56.6901
56.6873
56.6845
56.6816
56.6788
56.676
56.6732
56.6704
56.6676
56.6648
56.6619
56.6591
56.6563
56.6535
56.6507
56.6479
56.6451
56.6423
56.6395
56.6366
56.6338
56.631
56.6282
56.6254
56.6226
56.6198
56.617
56.6142
56.6114
56.6086
56.6058
56.603
56.6002
56.5974
56.5945
56.5917
56.5889
56.5861
56.5833
56.5805
56.5777
56.5749
56.5721
56.5693
56.5665
56.5637
56.5609
56.5581
56.5553
56.5525
56.5497
56.5469
56.5441
56.5413
56.5385
56.5358
56.533
56.5302
56.5274
56.5246
56.5218
56.519
56.5162
56.5134
56.5106
56.5078
56.505
56.5022
56.4994
56.4967
56.4939
56.4911
56.4883
56.4855
56.4827
56.4799
56.4771
56.4743
56.4716
56.4688
56.466
56.4632
56.4604
56.4576
56.4548
56.4521
56.4493
56.4465
56.4437
56.4409
56.4381
56.4354
56.4326
56.4298
56.427
56.4242
56.4215
56.4187
56.4159
56.4131
56.4103
56.4076
56.4048
56.402
56.3992
56.3965
56.3937
56.3909
56.3881
56.3853
56.3826
56.3798
56.377
56.3743
56.3715
56.3687
56.3659
56.3632
56.3604
56.3576
56.3548
56.3521
56.3493
56.3465
56.3438
56.341
56.3382
56.3355
56.3327
56.3299
56.3272
56.3244
56.3216
56.3189
56.3161
56.3133
56.3106
56.3078
56.305
56.3023
56.2995
56.2967
56.294
56.2912
56.2885
56.2857
56.2829
56.2802
56.2774
56.2747
56.2719
56.2691
56.2664
56.2636
56.2609
56.2581
56.2554
56.2526
56.2498
56.2471
56.2443
56.2416
56.2388
56.2361
56.2333
56.2306
56.2278
56.225
56.2223
56.2195
56.2168
56.214
56.2113
56.2085
56.2058
56.203
56.2003
56.1975
56.1948
56.192
56.1893
56.1865
56.1838
56.1811
56.1783
56.1756
56.1728
56.1701
56.1673
56.1646
56.1618
56.1591
56.1563
56.1536
56.1509
56.1481
56.1454
56.1426
56.1399
56.1372
56.1344
56.1317
56.1289
56.1262
56.1235
56.1207
56.118
56.1152
56.1125
56.1098
56.107
56.1043
56.1016
56.0988
56.0961
56.0934
56.0906
56.0879
56.0852
56.0824
56.0797
56.077
56.0742
56.0715
56.0688
56.066
56.0633
56.0606
56.0578
56.0551
56.0524
56.0497
56.0469
56.0442
56.0415
56.0387
56.036
56.0333
56.0306
56.0278
56.0251
56.0224
56.0197
56.0169
56.0142
56.0115
56.0088
56.0061
56.0033
56.0006
55.9979
55.9952
55.9924
55.9897
55.987
55.9843
55.9816
55.9788
55.9761
55.9734
55.9707
55.968
55.9653
55.9625
55.9598
55.9571
55.9544
55.9517
55.949
55.9463
55.9435
55.9408
55.9381
55.9354
55.9327
55.93
55.9273
55.9246
55.9218
55.9191
55.9164
55.9137
55.911
55.9083
55.9056
55.9029
55.9002
55.8975
55.8948
55.8921
55.8893
55.8866
55.8839
55.8812
55.8785
55.8758
55.8731
55.8704
55.8677
55.865
55.8623
55.8596
55.8569
55.8542
55.8515
55.8488
55.8461
55.8434
55.8407
55.838
55.8353
55.8326
55.8299
55.8272
55.8245
55.8218
55.8191
55.8164
55.8137
55.811
55.8083
55.8056
55.803
55.8003
55.7976
55.7949
55.7922
55.7895
55.7868
55.7841
55.7814
55.7787
55.776
55.7733
55.7707
55.768
55.7653
55.7626
55.7599
55.7572
55.7545
55.7518
55.7492
55.7465
55.7438
55.7411
55.7384
55.7357
55.733
55.7304
55.7277
55.725
55.7223
55.7196
55.7169
55.7143
55.7116
55.7089
55.7062
55.7035
55.7009
55.6982
55.6955
55.6928
55.6901
55.6875
55.6848
55.6821
55.6794
55.6768
55.6741
55.6714
55.6687
55.6661
55.6634
55.6607
55.658
55.6554
55.6527
55.65
55.6473
55.6447
55.642
55.6393
55.6367
55.634
55.6313
55.6287
55.626
55.6233
55.6206
55.618
55.6153
55.6126
55.61
55.6073
55.6046
55.602
55.5993
55.5966
55.594
55.5913
55.5887
55.586
55.5833
55.5807
55.578
55.5753
55.5727
55.57
55.5674
55.5647
55.562
55.5594
55.5567
55.5541
55.5514
55.5487
55.5461
55.5434
55.5408
55.5381
55.5355
55.5328
55.5301
55.5275
55.5248
55.5222
55.5195
55.5169
55.5142
55.5116
55.5089
55.5063
55.5036
55.501
55.4983
55.4957
55.493
55.4904
55.4877
55.4851
55.4824
55.4798
55.4771
55.4745
55.4718
55.4692
55.4665
55.4639
55.4612
55.4586
55.4559
55.4533
55.4507
55.448
55.4454
55.4427
55.4401
55.4374
55.4348
55.4322
55.4295
55.4269
55.4242
55.4216
55.4189
55.4163
55.4137
55.411
55.4084
55.4058
55.4031
55.4005
55.3978
55.3952
55.3926
55.3899
55.3873
55.3847
55.382
55.3794
55.3768
55.3741
55.3715
55.3689
55.3662
55.3636
55.361
55.3583
55.3557
55.3531
55.3504
55.3478
55.3452
55.3426
55.3399
55.3373
55.3347
55.332
55.3294
55.3268
55.3242
55.3215
55.3189
55.3163
55.3137
55.311
55.3084
55.3058
55.3032
55.3005
55.2979
55.2953
55.2927
55.2901
55.2874
55.2848
55.2822
55.2796
55.2769
55.2743
55.2717
55.2691
55.2665
55.2639
55.2612
55.2586
55.256
55.2534
55.2508
55.2482
55.2455
55.2429
55.2403
55.2377
55.2351
55.2325
55.2299
55.2272
55.2246
55.222
55.2194
55.2168
55.2142
55.2116
55.209
55.2064
55.2037
55.2011
55.1985
55.1959
55.1933
55.1907
55.1881
55.1855
55.1829
55.1803
55.1777
55.1751
55.1725
55.1699
55.1673
55.1647
55.162
55.1594
55.1568
55.1542
55.1516
55.149
55.1464
55.1438
55.1412
55.1386
55.136
55.1334
55.1308
55.1282
55.1256
55.123
55.1204
55.1178
55.1152
55.1127
55.1101
55.1075
55.1049
55.1023
55.0997
55.0971
55.0945
55.0919
55.0893
55.0867
55.0841
55.0815
55.0789
55.0763
55.0738
55.0712
55.0686
55.066
55.0634
55.0608
55.0582
55.0556
55.053
55.0505
55.0479
55.0453
55.0427
55.0401
55.0375
55.0349
55.0323
55.0298
55.0272
55.0246
55.022
55.0194
55.0168
55.0143
55.0117
55.0091
55.0065
55.0039
55.0014
54.9988
54.9962
54.9936
54.991
54.9885
54.9859
54.9833
54.9807
54.9782
54.9756
54.973
54.9704
54.9678
54.9653
54.9627
54.9601
54.9575
54.955
54.9524
54.9498
54.9473
54.9447
54.9421
54.9395
54.937
54.9344
54.9318
54.9293
54.9267
54.9241
54.9215
54.919
54.9164
54.9138
54.9113
54.9087
54.9061
54.9036
54.901
54.8984
54.8959
54.8933
54.8907
54.8882
54.8856
54.8831
54.8805
54.8779
54.8754
54.8728
54.8702
54.8677
54.8651
54.8626
54.86
54.8574
54.8549
54.8523
54.8498
54.8472
54.8446
54.8421
54.8395
54.837
54.8344
54.8319
54.8293
54.8268
54.8242
54.8216
54.8191
54.8165
54.814
54.8114
54.8089
54.8063
54.8038
54.8012
54.7987
54.7961
54.7936
54.791
54.7885
54.7859
54.7834
54.7808
54.7783
54.7757
54.7732
54.7706
54.7681
54.7655
54.763
54.7604
54.7579
54.7554
54.7528
54.7503
54.7477
54.7452
54.7426
54.7401
54.7375
54.735
54.7325
54.7299
54.7274
54.7248
54.7223
54.7198
54.7172
54.7147
54.7121
54.7096
54.7071
54.7045
54.702
54.6995
54.6969
54.6944
54.6918
54.6893
54.6868
54.6842
54.6817
54.6792
54.6766
54.6741
54.6716
54.669
54.6665
54.664
54.6614
54.6589
54.6564
54.6538
54.6513
54.6488
54.6463
54.6437
54.6412
54.6387
54.6361
54.6336
54.6311
54.6286
54.626
54.6235
54.621
54.6185
54.6159
54.6134
54.6109
54.6084
54.6058
54.6033
54.6008
54.5983
54.5957
54.5932
54.5907
54.5882
54.5857
54.5831
54.5806
54.5781
54.5756
54.5731
54.5705
54.568
54.5655
54.563
54.5605
54.558
54.5554
54.5529
54.5504
54.5479
54.5454
54.5429
54.5404
54.5378
54.5353
54.5328
54.5303
54.5278
54.5253
54.5228
54.5203
54.5177
54.5152
54.5127
54.5102
54.5077
54.5052
54.5027
54.5002
54.4977
54.4952
54.4927
54.4901
54.4876
54.4851
54.4826
54.4801
54.4776
54.4751
54.4726
54.4701
54.4676
54.4651
54.4626
54.4601
54.4576
54.4551
54.4526
54.4501
54.4476
54.4451
54.4426
54.4401
54.4376
54.4351
54.4326
54.4301
54.4276
54.4251
54.4226
54.4201
54.4176
54.4151
54.4126
54.4101
54.4076
54.4051
54.4026
54.4001
54.3977
54.3952
54.3927
54.3902
54.3877
54.3852
54.3827
54.3802
54.3777
54.3752
54.3727
54.3703
54.3678
54.3653
54.3628
54.3603
54.3578
54.3553
54.3528
54.3504
54.3479
54.3454
54.3429
54.3404
54.3379
54.3354
54.333
54.3305
54.328
54.3255
54.323
54.3205
54.3181
54.3156
54.3131
54.3106
54.3081
54.3057
54.3032
54.3007
54.2982
54.2957
54.2933
54.2908
54.2883
54.2858
54.2834
54.2809
54.2784
54.2759
54.2735
54.271
54.2685
54.266
54.2636
54.2611
54.2586
54.2561
54.2537
54.2512
54.2487
54.2462
54.2438
54.2413
54.2388
54.2364
54.2339
54.2314
54.229
54.2265
54.224
54.2216
54.2191
54.2166
54.2142
54.2117
54.2092
54.2068
54.2043
54.2018
54.1994
54.1969
54.1944
54.192
54.1895
54.187
54.1846
54.1821
54.1797
54.1772
54.1747
54.1723
54.1698
54.1674
54.1649
54.1624
54.16
54.1575
54.1551
54.1526
54.1502
54.1477
54.1452
54.1428
54.1403
54.1379
54.1354
54.133
54.1305
54.1281
54.1256
54.1231
54.1207
54.1182
54.1158
54.1133
54.1109
54.1084
54.106
54.1035
54.1011
54.0986
54.0962
54.0937
54.0913
54.0888
54.0864
54.0839
54.0815
54.0791
54.0766
54.0742
54.0717
54.0693
54.0668
54.0644
54.0619
54.0595
54.057
54.0546
54.0522
54.0497
54.0473
54.0448
54.0424
54.04
54.0375
54.0351
54.0326
54.0302
54.0278
54.0253
54.0229
54.0204
54.018
54.0156
54.0131
54.0107
54.0083
54.0058
54.0034
54.0009
53.9985
53.9961
53.9936
53.9912
53.9888
53.9863
53.9839
53.9815
53.979
53.9766
53.9742
53.9718
53.9693
53.9669
53.9645
53.962
53.9596
53.9572
53.9547
53.9523
53.9499
53.9475
53.945
53.9426
53.9402
53.9378
53.9353
53.9329
53.9305
53.9281
53.9256
53.9232
53.9208
53.9184
53.9159
53.9135
53.9111
53.9087
53.9063
53.9038
53.9014
53.899
53.8966
53.8941
53.8917
53.8893
53.8869
53.8845
53.8821
53.8796
53.8772
53.8748
53.8724
53.87
53.8676
53.8651
53.8627
53.8603
53.8579
53.8555
53.8531
53.8507
53.8482
53.8458
53.8434
53.841
53.8386
53.8362
53.8338
53.8314
53.829
53.8265
53.8241
53.8217
53.8193
53.8169
53.8145
53.8121
53.8097
53.8073
53.8049
53.8025
53.8001
53.7977
53.7953
53.7929
53.7905
53.788
53.7856
53.7832
53.7808
53.7784
53.776
53.7736
53.7712
53.7688
53.7664
53.764
53.7616
53.7592
53.7568
53.7544
53.752
53.7496
53.7472
53.7448
53.7424
53.74
53.7377
53.7353
53.7329
53.7305
53.7281
53.7257
53.7233
53.7209
53.7185
53.7161
53.7137
53.7113
53.7089
53.7065
53.7041
53.7017
53.6994
53.697
53.6946
53.6922
53.6898
53.6874
53.685
53.6826
53.6802
53.6779
53.6755
53.6731
53.6707
53.6683
53.6659
53.6635
53.6612
53.6588
53.6564
53.654
53.6516
53.6492
53.6469
53.6445
53.6421
53.6397
53.6373
53.6349
53.6326
53.6302
53.6278
53.6254
53.623
53.6207
53.6183
53.6159
53.6135
53.6112
53.6088
53.6064
53.604
53.6017
53.5993
53.5969
53.5945
53.5922
53.5898
53.5874
53.585
53.5827
53.5803
53.5779
53.5755
53.5732
53.5708
53.5684
53.5661
53.5637
53.5613
53.5589
53.5566
53.5542
53.5518
53.5495
53.5471
53.5447
53.5424
53.54
53.5376
53.5353
53.5329
53.5305
53.5282
53.5258
53.5234
53.5211
53.5187
53.5163
53.514
53.5116
53.5093
53.5069
53.5045
53.5022
53.4998
53.4975
53.4951
53.4927
53.4904
53.488
53.4857
53.4833
53.4809
53.4786
53.4762
53.4739
53.4715
53.4692
53.4668
53.4644
53.4621
53.4597
53.4574
53.455
53.4527
53.4503
53.448
53.4456
53.4433
53.4409
53.4386
53.4362
53.4339
53.4315
53.4292
53.4268
53.4245
53.4221
53.4198
53.4174
53.4151
53.4127
53.4104
53.408
53.4057
53.4033
53.401
53.3986
53.3963
53.3939
53.3916
53.3893
53.3869
53.3846
53.3822
53.3799
53.3775
53.3752
53.3729
53.3705
53.3682
53.3658
53.3635
53.3612
53.3588
53.3565
53.3541
53.3518
53.3495
53.3471
53.3448
53.3424
53.3401
53.3378
53.3354
53.3331
53.3308
53.3284
53.3261
53.3238
53.3214
53.3191
53.3168
53.3144
53.3121
53.3098
53.3074
53.3051
53.3028
53.3004
53.2981
53.2958
53.2934
53.2911
53.2888
53.2865
53.2841
53.2818
53.2795
53.2771
53.2748
53.2725
53.2702
53.2678
53.2655
53.2632
53.2609
53.2585
53.2562
53.2539
53.2516
53.2492
53.2469
53.2446
53.2423
53.24
53.2376
53.2353
53.233
53.2307
53.2284
53.226
53.2237
53.2214
53.2191
53.2168
53.2144
53.2121
53.2098
53.2075
53.2052
53.2029
53.2005
53.1982
53.1959
53.1936
53.1913
53.189
53.1867
53.1843
53.182
53.1797
53.1774
53.1751
53.1728
53.1705
53.1682
53.1658
53.1635
53.1612
53.1589
53.1566
53.1543
53.152
53.1497
53.1474
53.1451
53.1428
53.1405
53.1382
53.1358
53.1335
53.1312
53.1289
53.1266
53.1243
53.122
53.1197
53.1174
53.1151
53.1128
53.1105
53.1082
53.1059
53.1036
53.1013
53.099
53.0967
53.0944
53.0921
53.0898
53.0875
53.0852
53.0829
53.0806
53.0783
53.076
53.0737
53.0714
53.0691
53.0668
53.0645
53.0622
53.0599
53.0576
53.0554
53.0531
53.0508
53.0485
53.0462
53.0439
53.0416
53.0393
53.037
53.0347
53.0324
53.0301
53.0279
53.0256
53.0233
53.021
53.0187
53.0164
53.0141
53.0118
53.0096
53.0073
53.005
53.0027
53.0004
52.9981
52.9958
52.9936
52.9913
52.989
52.9867
52.9844
52.9821
52.9799
52.9776
52.9753
52.973
52.9707
52.9685
52.9662
52.9639
52.9616
52.9593
52.9571
52.9548
52.9525
52.9502
52.9479
52.9457
52.9434
52.9411
52.9388
52.9366
52.9343
52.932
52.9297
52.9275
52.9252
52.9229
52.9206
52.9184
52.9161
52.9138
52.9116
52.9093
52.907
52.9047
52.9025
52.9002
52.8979
52.8957
52.8934
52.8911
52.8889
52.8866
52.8843
52.8821
52.8798
52.8775
52.8753
52.873
52.8707
52.8685
52.8662
52.8639
52.8617
52.8594
52.8571
52.8549
52.8526
52.8503
52.8481
52.8458
52.8436
52.8413
52.839
52.8368
52.8345
52.8323
52.83
52.8277
52.8255
52.8232
52.821
52.8187
52.8165
52.8142
52.8119
52.8097
52.8074
52.8052
52.8029
52.8007
52.7984
52.7962
52.7939
52.7916
52.7894
52.7871
52.7849
52.7826
52.7804
52.7781
52.7759
52.7736
52.7714
52.7691
52.7669
52.7646
52.7624
52.7601
52.7579
52.7556
52.7534
52.7511
52.7489
52.7466
52.7444
52.7422
52.7399
52.7377
52.7354
52.7332
52.7309
52.7287
52.7264
52.7242
52.722
52.7197
52.7175
52.7152
52.713
52.7107
52.7085
52.7063
52.704
52.7018
52.6995
52.6973
52.6951
52.6928
52.6906
52.6884
52.6861
52.6839
52.6816
52.6794
52.6772
52.6749
52.6727
52.6705
52.6682
52.666
52.6638
52.6615
52.6593
52.6571
52.6548
52.6526
52.6504
52.6481
52.6459
52.6437
52.6414
52.6392
52.637
52.6348
52.6325
52.6303
52.6281
52.6258
52.6236
52.6214
52.6192
52.6169
52.6147
52.6125
52.6103
52.608
52.6058
52.6036
52.6014
52.5991
52.5969
52.5947
52.5925
52.5902
52.588
52.5858
52.5836
52.5814
52.5791
52.5769
52.5747
52.5725
52.5703
52.568
52.5658
52.5636
52.5614
52.5592
52.557
52.5547
52.5525
52.5503
52.5481
52.5459
52.5437
52.5414
52.5392
52.537
52.5348
52.5326
52.5304
52.5282
52.5259
52.5237
52.5215
52.5193
52.5171
52.5149
52.5127
52.5105
52.5083
52.5061
52.5038
52.5016
52.4994
52.4972
52.495
52.4928
52.4906
52.4884
52.4862
52.484
52.4818
52.4796
52.4774
52.4752
52.473
52.4707
52.4685
52.4663
52.4641
52.4619
52.4597
52.4575
52.4553
52.4531
52.4509
52.4487
52.4465
52.4443
52.4421
52.4399
52.4377
52.4355
52.4333
52.4311
52.4289
52.4267
52.4245
52.4224
52.4202
52.418
52.4158
52.4136
52.4114
52.4092
52.407
52.4048
52.4026
52.4004
52.3982
52.396
52.3938
52.3916
52.3894
52.3873
52.3851
52.3829
52.3807
52.3785
52.3763
52.3741
52.3719
52.3697
52.3676
52.3654
52.3632
52.361
52.3588
52.3566
52.3544
52.3522
52.3501
52.3479
52.3457
52.3435
52.3413
52.3391
52.337
52.3348
52.3326
52.3304
52.3282
52.3261
52.3239
52.3217
52.3195
52.3173
52.3151
52.313
52.3108
52.3086
52.3064
52.3043
52.3021
52.2999
52.2977
52.2955
52.2934
52.2912
52.289
52.2868
52.2847
52.2825
52.2803
52.2781
52.276
52.2738
52.2716
52.2695
52.2673
52.2651
52.2629
52.2608
52.2586
52.2564
52.2543
52.2521
52.2499
52.2478
52.2456
52.2434
52.2412
52.2391
52.2369
52.2347
52.2326
52.2304
52.2282
52.2261
52.2239
52.2217
52.2196
52.2174
52.2153
52.2131
52.2109
52.2088
52.2066
52.2044
52.2023
52.2001
52.198
52.1958
52.1936
52.1915
52.1893
52.1872
52.185
52.1828
52.1807
52.1785
52.1764
52.1742
52.172
52.1699
52.1677
52.1656
52.1634
52.1613
52.1591
52.157
52.1548
52.1526
52.1505
52.1483
52.1462
52.144
52.1419
52.1397
52.1376
52.1354
52.1333
52.1311
52.129
52.1268
52.1247
52.1225
52.1204
52.1182
52.1161
52.1139
52.1118
52.1096
52.1075
52.1053
52.1032
52.1011
52.0989
52.0968
52.0946
52.0925
52.0903
52.0882
52.086
52.0839
52.0818
52.0796
52.0775
52.0753
52.0732
52.071
52.0689
52.0668
52.0646
52.0625
52.0603
52.0582
52.0561
52.0539
52.0518
52.0497
52.0475
52.0454
52.0432
52.0411
52.039
52.0368
52.0347
52.0326
52.0304
52.0283
52.0262
52.024
52.0219
52.0198
52.0176
52.0155
52.0134
52.0112
52.0091
52.007
52.0048
52.0027
52.0006
51.9984
51.9963
51.9942
51.9921
51.9899
51.9878
51.9857
51.9835
51.9814
51.9793
51.9772
51.975
51.9729
51.9708
51.9687
51.9665
51.9644
51.9623
51.9602
51.958
51.9559
51.9538
51.9517
51.9496
51.9474
51.9453
51.9432
51.9411
51.939
51.9368
51.9347
51.9326
51.9305
51.9284
51.9262