# vtk DataFile Version 2.0
vtk output
ASCII
DATASET STRUCTURED_GRID
DIMENSIONS 50 10 30
POINTS 15000 float
0 0 0
1 0 0
2 0 0
3 0 0
4 0 0
5 0 0
6 0 0
7 0 0
8 0 0
9 0 0
10 0 0
11 0 0
12 0 0
13 0 0
14 0 0
15 0 0
16 0 0
17 0 0
18 0 0
19 0 0
20 0 0
21 0 0
22 0 0
23 0 0
24 0 0
25 0 0
26 0 0
27 0 0
28 0 0
29 0 0
30 0 0
31 0 0
32 0 0
33 0 0
34 0 0
35 0 0
36 0 0
37 0 0
38 0 0
39 0 0
40 0 0
41 0 0
42 0 0
43 0 0
44 0 0
45 0 0
46 0 0
47 0 0
48 0 0
49 0 0
0 1 0
1 1 0
2 1 0
3 1 0
4 1 0
5 1 0
6 1 0
7 1 0
8 1 0
9 1 0
10 1 0
11 1 0
12 1 0
13 1 0
14 1 0
15 1 0
16 1 0
17 1 0
18 1 0
19 1 0
20 1 0
21 1 0
22 1 0
23 1 0
24 1 0
25 1 0
26 1 0
27 1 0
28 1 0
29 1 0
30 1 0
31 1 0
32 1 0
33 1 0
34 1 0
35 1 0
36 1 0
37 1 0
38 1 0
39 1 0
40 1 0
41 1 0
42 1 0
43 1 0
44 1 0
45 1 0
46 1 0
47 1 0
48 1 0
49 1 0
0 2 0
1 2 0
2 2 0
3 2 0
4 2 0
5 2 0
6 2 0
7 2 0
8 2 0
9 2 0
10 2 0
11 2 0
12 2 0
13 2 0
14 2 0
15 2 0
16 2 0
17 2 0
18 2 0
19 2 0
20 2 0
21 2 0
22 2 0
23 2 0
24 2 0
25 2 0
26 2 0
27 2 0
28 2 0
29 2 0
30 2 0
31 2 0
32 2 0
33 2 0
34 2 0
35 2 0
36 2 0
37 2 0
38 2 0
39 2 0
40 2 0
41 2 0
42 2 0
43 2 0
44 2 0
45 2 0
46 2 0
47 2 0
48 2 0
49 2 0
0 3 0
1 3 0
2 3 0
3 3 0
4 3 0
5 3 0
6 3 0
7 3 0
8 3 0
9 3 0
10 3 0
11 3 0
12 3 0
13 3 0
14 3 0
15 3 0
16 3 0
17 3 0
18 3 0
19 3 0
20 3 0
21 3 0
22 3 0
23 3 0
24 3 0
25 3 0
26 3 0
27 3 0
28 3 0
29 3 0
30 3 0
31 3 0
32 3 0
33 3 0
34 3 0
35 3 0
36 3 0
37 3 0
38 3 0
39 3 0
40 3 0
41 3 0
42 3 0
43 3 0
44 3 0
45 3 0
46 3 0
47 3 0
48 3 0
49 3 0
0 4 0
1 4 0
2 4 0
3 4 0
4 4 0
5 4 0
6 4 0
7 4 0
8 4 0
9 4 0
10 4 0
11 4 0
12 4 0
13 4 0
14 4 0
15 4 0
16 4 0
17 4 0
18 4 0
19 4 0
20 4 0
21 4 0
22 4 0
23 4 0
24 4 0
25 4 0
26 4 0
27 4 0
28 4 0
29 4 0
30 4 0
31 4 0
32 4 0
33 4 0
34 4 0
35 4 0
36 4 0
37 4 0
38 4 0
39 4 0
40 4 0
41 4 0
42 4 0
43 4 0
44 4 0
45 4 0
46 4 0
47 4 0
48 4 0
49 4 0
0 5 0
1 5 0
2 5 0
3 5 0
4 5 0
5 5 0
6 5 0
7 5 0
8 5 0
9 5 0
10 5 0
11 5 0
12 5 0
13 5 0
14 5 0
15 5 0
16 5 0
17 5 0
18 5 0
19 5 0
20 5 0
21 5 0
22 5 0
23 5 0
24 5 0
25 5 0
26 5 0
27 5 0
28 5 0
29 5 0
30 5 0
31 5 0
32 5 0
33 5 0
34 5 0
35 5 0
36 5 0
37 5 0
38 5 0
39 5 0
40 5 0
41 5 0
42 5 0
43 5 0
44 5 0
45 5 0
46 5 0
47 5 0
48 5 0
49 5 0
0 6 0
1 6 0
2 6 0
3 6 0
4 6 0
5 6 0
6 6 0
7 6 0
8 6 0
9 6 0
10 6 0
11 6 0
12 6 0
13 6 0
14 6 0
15 6 0
16 6 0
17 6 0
18 6 0
19 6 0
20 6 0
21 6 0
22 6 0
23 6 0
24 6 0
25 6 0
26 6 0
27 6 0
28 6 0
29 6 0
30 6 0
31 6 0
32 6 0
33 6 0
34 6 0
35 6 0
36 6 0
37 6 0
38 6 0
39 6 0
40 6 0
41 6 0
42 6 0
43 6 0
44 6 0
45 6 0
46 6 0
47 6 0
48 6 0
49 6 0
0 7 0
1 7 0
2 7 0
3 7 0
4 7 0
5 7 0
6 7 0
7 7 0
8 7 0
9 7 0
10 7 0
11 7 0
12 7 0
13 7 0
14 7 0
15 7 0
16 7 0
17 7 0
18 7 0
19 7 0
20 7 0
21 7 0
22 7 0
23 7 0
24 7 0
25 7 0
26 7 0
27 7 0
28 7 0
29 7 0
30 7 0
31 7 0
32 7 0
33 7 0
34 7 0
35 7 0
36 7 0
37 7 0
38 7 0
39 7 0
40 7 0
41 7 0
42 7 0
43 7 0
44 7 0
45 7 0
46 7 0
47 7 0
48 7 0
49 7 0
0 8 0
1 8 0
2 8 0
3 8 0
4 8 0
5 8 0
6 8 0
7 8 0
8 8 0
9 8 0
10 8 0
11 8 0
12 8 0
13 8 0
14 8 0
15 8 0
16 8 0
17 8 0
18 8 0
19 8 0
20 8 0
21 8 0
22 8 0
23 8 0
24 8 0
25 8 0
26 8 0
27 8 0
28 8 0
29 8 0
30 8 0
31 8 0
32 8 0
33 8 0
34 8 0
35 8 0
36 8 0
37 8 0
38 8 0
39 8 0
40 8 0
41 8 0
42 8 0
43 8 0
44 8 0
45 8 0
46 8 0
47 8 0
48 8 0
49 8 0
0 9 0
1 9 0
2 9 0
3 9 0
4 9 0
5 9 0
6 9 0
7 9 0
8 9 0
9 9 0
10 9 0
11 9 0
12 9 0
13 9 0
14 9 0
15 9 0
16 9 0
17 9 0
18 9 0
19 9 0
20 9 0
21 9 0
22 9 0
23 9 0
24 9 0
25 9 0
26 9 0
27 9 0
28 9 0
29 9 0
30 9 0
31 9 0
32 9 0
33 9 0
34 9 0
35 9 0
36 9 0
37 9 0
38 9 0
39 9 0
40 9 0
41 9 0
42 9 0
43 9 0
44 9 0
45 9 0
46 9 0
47 9 0
48 9 0
49 9 0
0 0 1
1 0 1
2 0 1
3 0 1
4 0 1
5 0 1
6 0 1
7 0 1
8 0 1
9 0 1
10 0 1
11 0 1
12 0 1
13 0 1
14 0 1
15 0 1
16 0 1
17 0 1
18 0 1
19 0 1
20 0 1
21 0 1
22 0 1
23 0 1
24 0 1
25 0 1
26 0 1
27 0 1
28 0 1
29 0 1
30 0 1
31 0 1
32 0 1
33 0 1
34 0 1
35 0 1
36 0 1
37 0 1
38 0 1
39 0 1
40 0 1
41 0 1
42 0 1
43 0 1
44 0 1
45 0 1
46 0 1
47 0 1
48 0 1
49 0 1
0 1 1
1 1 1
2 1 1
3 1 1
4 1 1
5 1 1
6 1 1
7 1 1
8 1 1
9 1 1
10 1 1
11 1 1
12 1 1
13 1 1
14 1 1
15 1 1
16 1 1
17 1 1
18 1 1
19 1 1
20 1 1
21 1 1
22 1 1
23 1 1
24 1 1
25 1 1
26 1 1
27 1 1
28 1 1
29 1 1
30 1 1
31 1 1
32 1 1
33 1 1
34 1 1
35 1 1
36 1 1
37 1 1
38 1 1
39 1 1
40 1 1
41 1 1
42 1 1
43 1 1
44 1 1
45 1 1
46 1 1
47 1 1
48 1 1
49 1 1
0 2 1
1 2 1
2 2 1
3 2 1
4 2 1
5 2 1
6 2 1
7 2 1
8 2 1
9 2 1
10 2 1
11 2 1
12 2 1
13 2 1
14 2 1
15 2 1
16 2 1
17 2 1
18 2 1
19 2 1
20 2 1
21 2 1
22 2 1
23 2 1
24 2 1
25 2 1
26 2 1
27 2 1
28 2 1
29 2 1
30 2 1
31 2 1
32 2 1
33 2 1
34 2 1
35 2 1
36 2 1
37 2 1
38 2 1
39 2 1
40 2 1
41 2 1
42 2 1
43 2 1
44 2 1
45 2 1
46 2 1
47 2 1
48 2 1
49 2 1
0 3 1
1 3 1
2 3 1
3 3 1
4 3 1
5 3 1
6 3 1
7 3 1
8 3 1
9 3 1
10 3 1
11 3 1
12 3 1
13 3 1
14 3 1
15 3 1
16 3 1
17 3 1
18 3 1
19 3 1
20 3 1
21 3 1
22 3 1
23 3 1
24 3 1
25 3 1
26 3 1
27 3 1
28 3 1
29 3 1
30 3 1
31 3 1
32 3 1
33 3 1
34 3 1
35 3 1
36 3 1
37 3 1
38 3 1
39 3 1
40 3 1
41 3 1
42 3 1
43 3 1
44 3 1
45 3 1
46 3 1
47 3 1
48 3 1
49 3 1
0 4 1
1 4 1
2 4 1
3 4 1
4 4 1
5 4 1
6 4 1
7 4 1
8 4 1
9 4 1
10 4 1
11 4 1
12 4 1
13 4 1
14 4 1
15 4 1
16 4 1
17 4 1
18 4 1
19 4 1
20 4 1
21 4 1
22 4 1
23 4 1
24 4 1
25 4 1
26 4 1
27 4 1
28 4 1
29 4 1
30 4 1
31 4 1
32 4 1
33 4 1
34 4 1
35 4 1
36 4 1
37 4 1
38 4 1
39 4 1
40 4 1
41 4 1
42 4 1
43 4 1
44 4 1
45 4 1
46 4 1
47 4 1
48 4 1
49 4 1
0 5 1
1 5 1
2 5 1
3 5 1
4 5 1
5 5 1
6 5 1
7 5 1
8 5 1
9 5 1
10 5 1
11 5 1
12 5 1
13 5 1
14 5 1
15 5 1
16 5 1
17 5 1
18 5 1
19 5 1
20 5 1
21 5 1
22 5 1
23 5 1
24 5 1
25 5 1
26 5 1
27 5 1
28 5 1
29 5 1
30 5 1
31 5 1
32 5 1
33 5 1
34 5 1
35 5 1
36 5 1
37 5 1
38 5 1
39 5 1
40 5 1
41 5 1
42 5 1
43 5 1
44 5 1
45 5 1
46 5 1
47 5 1
48 5 1
49 5 1
0 6 1
1 6 1
2 6 1
3 6 1
4 6 1
5 6 1
6 6 1
7 6 1
8 6 1
9 6 1
10 6 1
11 6 1
12 6 1
13 6 1
14 6 1
15 6 1
16 6 1
17 6 1
18 6 1
19 6 1
20 6 1
21 6 1
22 6 1
23 6 1
24 6 1
25 6 1
26 6 1
27 6 1
28 6 1
29 6 1
30 6 1
31 6 1
32 6 1
33 6 1
34 6 1
35 6 1
36 6 1
37 6 1
38 6 1
39 6 1
40 6 1
41 6 1
42 6 1
43 6 1
44 6 1
45 6 1
46 6 1
47 6 1
48 6 1
49 6 1
0 7 1
1 7 1
2 7 1
3 7 1
4 7 1
5 7 1
6 7 1
7 7 1
8 7 1
9 7 1
10 7 1
11 7 1
12 7 1
13 7 1
14 7 1
15 7 1
16 7 1
17 7 1
18 7 1
19 7 1
20 7 1
21 7 1
22 7 1
23 7 1
24 7 1
25 7 1
26 7 1
27 7 1
28 7 1
29 7 1
30 7 1
31 7 1
32 7 1
33 7 1
34 7 1
35 7 1
36 7 1
37 7 1
38 7 1
39 7 1
40 7 1
41 7 1
42 7 1
43 7 1
44 7 1
45 7 1
46 7 1
47 7 1
48 7 1
49 7 1
0 8 1
1 8 1
2 8 1
3 8 1
4 8 1
5 8 1
6 8 1
7 8 1
8 8 1
9 8 1
10 8 1
11 8 1
12 8 1
13 8 1
14 8 1
15 8 1
16 8 1
17 8 1
18 8 1
19 8 1
20 8 1
21 8 1
22 8 1
23 8 1
24 8 1
25 8 1
26 8 1
27 8 1
28 8 1
29 8 1
30 8 1
31 8 1
32 8 1
33 8 1
34 8 1
35 8 1
36 8 1
37 8 1
38 8 1
39 8 1
40 8 1
41 8 1
42 8 1
43 8 1
44 8 1
45 8 1
46 8 1
47 8 1
48 8 1
49 8 1
0 9 1
1 9 1
2 9 1
3 9 1
4 9 1
5 9 1
6 9 1
7 9 1
8 9 1
9 9 1
10 9 1
11 9 1
12 9 1
13 9 1
14 9 1
15 9 1
16 9 1
17 9 1
18 9 1
19 9 1
20 9 1
21 9 1
22 9 1
23 9 1
24 9 1
25 9 1
26 9 1
27 9 1
28 9 1
29 9 1
30 9 1
31 9 1
32 9 1
33 9 1
34 9 1
35 9 1
36 9 1
37 9 1
38 9 1
39 9 1
40 9 1
41 9 1
42 9 1
43 9 1
44 9 1
45 9 1
46 9 1
47 9 1
48 9 1
49 9 1
0 0 2
1 0 2
2 0 2
3 0 2
4 0 2
5 0 2
6 0 2
7 0 2
8 0 2
9 0 2
10 0 2
11 0 2
12 0 2
13 0 2
14 0 2
15 0 2
16 0 2
17 0 2
18 0 2
19 0 2
20 0 2
21 0 2
22 0 2
23 0 2
24 0 2
25 0 2
26 0 2
27 0 2
28 0 2
29 0 2
30 0 2
31 0 2
32 0 2
33 0 2
34 0 2
35 0 2
36 0 2
37 0 2
38 0 2
39 0 2
40 0 2
41 0 2
42 0 2
43 0 2
44 0 2
45 0 2
46 0 2
47 0 2
48 0 2
49 0 2
0 1 2
1 1 2
2 1 2
3 1 2
4 1 2
5 1 2
6 1 2
7 1 2
8 1 2
9 1 2
10 1 2
11 1 2
12 1 2
13 1 2
14 1 2
15 1 2
16 1 2
17 1 2
18 1 2
19 1 2
20 1 2
21 1 2
22 1 2
23 1 2
24 1 2
25 1 2
26 1 2
27 1 2
28 1 2
29 1 2
30 1 2
31 1 2
32 1 2
33 1 2
34 1 2
35 1 2
36 1 2
37 1 2
38 1 2
39 1 2
40 1 2
41 1 2
42 1 2
43 1 2
44 1 2
45 1 2
46 1 2
47 1 2
48 1 2
49 1 2
0 2 2
1 2 2
2 2 2
3 2 2
4 2 2
5 2 2
6 2 2
7 2 2
8 2 2
9 2 2
10 2 2
11 2 2
12 2 2
13 2 2
14 2 2
15 2 2
16 2 2
17 2 2
18 2 2
19 2 2
20 2 2
21 2 2
22 2 2
23 2 2
24 2 2
25 2 2
26 2 2
27 2 2
28 2 2
29 2 2
30 2 2
31 2 2
32 2 2
33 2 2
34 2 2
35 2 2
36 2 2
37 2 2
38 2 2
39 2 2
40 2 2
41 2 2
42 2 2
43 2 2
44 2 2
45 2 2
46 2 2
47 2 2
48 2 2
49 2 2
0 3 2
1 3 2
2 3 2
3 3 2
4 3 2
5 3 2
6 3 2
7 3 2
8 3 2
9 3 2
10 3 2
11 3 2
12 3 2
13 3 2
14 3 2
15 3 2
16 3 2
17 3 2
18 3 2
19 3 2
20 3 2
21 3 2
22 3 2
23 3 2
24 3 2
25 3 2
26 3 2
27 3 2
28 3 2
29 3 2
30 3 2
31 3 2
32 3 2
33 3 2
34 3 2
35 3 2
36 3 2
37 3 2
38 3 2
39 3 2
40 3 2
41 3 2
42 3 2
43 3 2
44 3 2
45 3 2
46 3 2
47 3 2
48 3 2
49 3 2
0 4 2
1 4 2
2 4 2
3 4 2
4 4 2
5 4 2
6 4 2
7 4 2
8 4 2
9 4 2
10 4 2
11 4 2
12 4 2
13 4 2
14 4 2
15 4 2
16 4 2
17 4 2
18 4 2
19 4 2
20 4 2
21 4 2
22 4 2
23 4 2
24 4 2
25 4 2
26 4 2
27 4 2
28 4 2
29 4 2
30 4 2
31 4 2
32 4 2
33 4 2
34 4 2
35 4 2
36 4 2
37 4 2
38 4 2
39 4 2
40 4 2
41 4 2
42 4 2
43 4 2
44 4 2
45 4 2
46 4 2
47 4 2
48 4 2
49 4 2
0 5 2
1 5 2
2 5 2
3 5 2
4 5 2
5 5 2
6 5 2
7 5 2
8 5 2
9 5 2
10 5 2
11 5 2
12 5 2
13 5 2
14 5 2
15 5 2
16 5 2
17 5 2
18 5 2
19 5 2
20 5 2
21 5 2
22 5 2
23 5 2
24 5 2
25 5 2
26 5 2
27 5 2
28 5 2
29 5 2
30 5 2
31 5 2
32 5 2
33 5 2
34 5 2
35 5 2
36 5 2
37 5 2
38 5 2
39 5 2
40 5 2
41 5 2
42 5 2
43 5 2
44 5 2
45 5 2
46 5 2
47 5 2
48 5 2
49 5 2
0 6 2
1 6 2
2 6 2
3 6 2
4 6 2
5 6 2
6 6 2
7 6 2
8 6 2
9 6 2
10 6 2
11 6 2
12 6 2
13 6 2
14 6 2
15 6 2
16 6 2
17 6 2
18 6 2
19 6 2
20 6 2
21 6 2
22 6 2
23 6 2
24 6 2
25 6 2
26 6 2
27 6 2
28 6 2
29 6 2
30 6 2
31 6 2
32 6 2
33 6 2
34 6 2
35 6 2
36 6 2
37 6 2
38 6 2
39 6 2
40 6 2
41 6 2
42 6 2
43 6 2
44 6 2
45 6 2
46 6 2
47 6 2
48 6 2
49 6 2
0 7 2
1 7 2
2 7 2
3 7 2
4 7 2
5 7 2
6 7 2
7 7 2
8 7 2
9 7 2
10 7 2
11 7 2
12 7 2
13 7 2
14 7 2
15 7 2
16 7 2
17 7 2
18 7 2
19 7 2
20 7 2
21 7 2
22 7 2
23 7 2
24 7 2
25 7 2
26 7 2
27 7 2
28 7 2
29 7 2
30 7 2
31 7 2
32 7 2
33 7 2
34 7 2
35 7 2
36 7 2
37 7 2
38 7 2
39 7 2
40 7 2
41 7 2
42 7 2
43 7 2
44 7 2
45 7 2
46 7 2
47 7 2
48 7 2
49 7 2
0 8 2
1 8 2
2 8 2
3 8 2
4 8 2
5 8 2
6 8 2
7 8 2
8 8 2
9 8 2
10 8 2
11 8 2
12 8 2
13 8 2
14 8 2
15 8 2
16 8 2
17 8 2
18 8 2
19 8 2
20 8 2
21 8 2
22 8 2
23 8 2
24 8 2
25 8 2
26 8 2
27 8 2
28 8 2
29 8 2
30 8 2
31 8 2
32 8 2
33 8 2
34 8 2
35 8 2
36 8 2
37 8 2
38 8 2
39 8 2
40 8 2
41 8 2
42 8 2
43 8 2
44 8 2
45 8 2
46 8 2
47 8 2
48 8 2
49 8 2
0 9 2
1 9 2
2 9 2
3 9 2
4 9 2
[...]
POINT_DATA 15000
SCALARS sol503 float
LOOKUP_TABLE default
58.4537
58.4506
58.4476
58.4445
58.4415
58.4384
58.4354
58.4323
58.4293
58.4262
58.4232
58.4201
58.4171
58.4141
58.411
58.408
58.4049
58.4019
58.3988
58.3958
58.3928
58.3897
58.3867
58.3836
58.3806
58.3776
58.3745
58.3715
58.3684
58.3654
58.3624
58.3593
58.3563
58.3533
58.3502
58.3472
58.3442
58.3411
58.3381
58.3351
58.332
58.329
58.326
58.3229
58.3199
58.3169
58.3138
58.3108
58.3078
58.3047
58.3017
58.2987
58.2957
58.2926
58.2896
58.2866
58.2835
58.2805
58.2775
58.2745
58.2714
58.2684
58.2654
58.2624
58.2593
58.2563
58.2533
58.2503
58.2473
58.2442
58.2412
58.2382
58.2352
58.2322
58.2291
58.2261
58.2231
58.2201
58.2171
58.214
58.211
58.208
58.205
58.202
58.199
58.196
58.1929
58.1899
58.1869
58.1839
58.1809
58.1779
58.1749
58.1718
58.1688
58.1658
58.1628
58.1598
58.1568
58.1538
58.1508
58.1478
58.1448
58.1418
58.1387
58.1357
58.1327
58.1297
58.1267
58.1237
58.1207
58.1177
58.1147
58.1117
58.1087
58.1057
58.1027
58.0997
58.0967
58.0937
58.0907
58.0877
58.0847
58.0817
58.0787
58.0757
58.0727
58.0697
58.0667
58.0637
58.0607
58.0577
58.0547
58.0517
58.0487
58.0457
58.0427
58.0397
58.0367
58.0337
58.0308
58.0278
58.0248
58.0218
58.0188
58.0158
58.0128
58.0098
58.0068
58.0038
58.0008
57.9979
57.9949
57.9919
57.9889
57.9859
57.9829
57.9799
57.977
57.974
57.971
57.968
57.965
57.962
57.959
57.9561
57.9531
57.9501
57.9471
57.9441
57.9412
57.9382
57.9352
57.9322
57.9292
57.9263
57.9233
57.9203
57.9173
57.9143
57.9114
57.9084
57.9054
57.9024
57.8995
57.8965
57.8935
57.8905
57.8876
57.8846
57.8816
57.8787
57.8757
57.8727
57.8697
57.8668
57.8638
57.8608
57.8579
57.8549
57.8519
57.849
57.846
57.843
57.84
57.8371
57.8341
57.8312
57.8282
57.8252
57.8223
57.8193
57.8163
57.8134
57.8104
57.8074
57.8045
57.8015
57.7986
57.7956
57.7926
57.7897
57.7867
57.7837
57.7808
57.7778
57.7749
57.7719
57.769
57.766
57.763
57.7601
57.7571
57.7542
57.7512
57.7483
57.7453
57.7424
57.7394
57.7364
57.7335
57.7305
57.7276
57.7246
57.7217
57.7187
57.7158
57.7128
57.7099
57.7069
57.704
57.701
57.6981
57.6951
57.6922
57.6893
57.6863
57.6834
57.6804
57.6775
57.6745
57.6716
57.6686
57.6657
57.6627
57.6598
57.6569
57.6539
57.651
57.648
57.6451
57.6422
57.6392
57.6363
57.6333
57.6304
57.6275
57.6245
57.6216
57.6186
57.6157
57.6128
57.6098
57.6069
57.604
57.601
57.5981
57.5952
57.5922
57.5893
57.5864
57.5834
57.5805
57.5776
57.5746
57.5717
57.5688
57.5658
57.5629
57.56
57.5571
57.5541
57.5512
57.5483
57.5453
57.5424
57.5395
57.5366
57.5336
57.5307
57.5278
57.5249
57.5219
57.519
57.5161
57.5132
57.5102
57.5073
57.5044
57.5015
57.4986
57.4956
57.4927
57.4898
57.4869
57.484
57.481
57.4781
57.4752
57.4723
57.4694
57.4664
57.4635
57.4606
57.4577
57.4548
57.4519
57.449
57.446
57.4431
57.4402
57.4373
57.4344
57.4315
57.4286
57.4257
57.4227
57.4198
57.4169
57.414
57.4111
57.4082
57.4053
57.4024
57.3995
57.3966
57.3937
57.3907
57.3878
57.3849
57.382
57.3791
57.3762
57.3733
57.3704
57.3675
57.3646
57.3617
57.3588
57.3559
57.353
57.3501
57.3472
57.3443
57.3414
57.3385
57.3356
57.3327
57.3298
57.3269
57.324
57.3211
57.3182
57.3153
57.3124
57.3095
57.3066
57.3037
57.3008
57.2979
57.2951
57.2922
57.2893
57.2864
57.2835
57.2806
57.2777
57.2748
57.2719
57.269
57.2661
57.2633
57.2604
57.2575
57.2546
57.2517
57.2488
57.2459
57.243
57.2402
57.2373
57.2344
57.2315
57.2286
57.2257
57.2228
57.22
57.2171
57.2142
57.2113
57.2084
57.2055
57.2027
57.1998
57.1969
57.194
57.1911
57.1883
57.1854
57.1825
57.1796
57.1768
57.1739
57.171
57.1681
57.1652
57.1624
57.1595
57.1566
57.1537
57.1509
57.148
57.1451
57.1423
57.1394
57.1365
57.1336
57.1308
57.1279
57.125
57.1222
57.1193
57.1164
57.1135
57.1107
57.1078
57.1049
57.1021
57.0992
57.0963
57.0935
57.0906
57.0877
57.0849
57.082
57.0792
57.0763
57.0734
57.0706
57.0677
57.0648
57.062
57.0591
57.0563
57.0534
57.0505
57.0477
57.0448
57.042
57.0391
57.0362
57.0334
57.0305
57.0277
57.0248
57.022
57.0191
57.0162
57.0134
57.0105
57.0077
57.0048
57.002
56.9991
56.9963
56.9934
56.9906
56.9877
56.9849
56.982
56.9792
56.9763
56.9735
56.9706
56.9678
56.9649
56.9621
56.9592
56.9564
56.9535
56.9507
56.9478
56.945
56.9421
56.9393
56.9364
56.9336
56.9308
56.9279
56.9251
56.9222
56.9194
56.9165
56.9137
56.9109
56.908
56.9052
56.9023
56.8995
56.8967
56.8938
56.891
56.8881
56.8853
56.8825
56.8796
56.8768
56.874
56.8711
56.8683
56.8655
56.8626
56.8598
56.8569
56.8541
56.8513
56.8485
56.8456
56.8428
56.84
56.8371
56.8343
56.8315
56.8286
56.8258
56.823
56.8201
56.8173
56.8145
56.8117
56.8088
56.806
56.8032
56.8004
56.7975
56.7947
56.7919
56.7891
56.7862
56.7834
56.7806
56.7778
56.7749
56.7721
56.7693
56.7665
56.7637
56.7608
56.758
56.7552
56.7524
56.7496
56.7467
56.7439
56.7411
56.7383
56.7355
56.7326
56.7298
56.727
56.7242
56.7214
56.7186
56.7158
56.7129
56.7101
56.7073
56.7045
56.7017
56.6989
56.6961
56.6933
56.6904
56.6876
56.6848
56.682
56.6792
56.6764
56.6736
56.6708
56.668
56.6652
56.6624
56.6595
56.6567
56.6539
56.6511
56.6483
56.6455
56.6427
56.6399
56.6371
56.6343
56.6315
56.6287
56.6259
56.6231
56.6203
56.6175
56.6147
56.6119
56.6091
56.6063
56.6035
56.6007
56.5979
56.5951
56.5923
56.5895
56.5867
56.5839
56.5811
56.5783
56.5755
56.5727
56.5699
56.5671
56.5644
56.5616
56.5588
56.556
56.5532
56.5504
56.5476
56.5448
56.542
56.5392
56.5364
56.5336
56.5309
56.5281
56.5253
56.5225
56.5197
56.5169
56.5141
56.5113
56.5086
56.5058
56.503
56.5002
56.4974
56.4946
56.4919
56.4891
56.4863
56.4835
56.4807
56.4779
56.4752
56.4724
56.4696
56.4668
56.464
56.4613
56.4585
56.4557
56.4529
56.4501
56.4474
56.4446
56.4418
56.439
56.4363
56.4335
56.4307
56.4279
56.4252
56.4224
56.4196
56.4168
56.4141
56.4113
56.4085
56.4058
56.403
56.4002
56.3974
56.3947
56.3919
56.3891
56.3864
56.3836
56.3808
56.3781
56.3753
56.3725
56.3698
56.367
56.3642
56.3615
56.3587
56.3559
56.3532
56.3504
56.3476
56.3449
56.3421
56.3393
56.3366
56.3338
56.3311
56.3283
56.3255
56.3228
56.32
56.3173
56.3145
56.3117
56.309
56.3062
56.3035
56.3007
56.298
56.2952
56.2924
56.2897
56.2869
56.2842
56.2814
56.2787
56.2759
56.2732
56.2704
56.2677
56.2649
56.2622
56.2594
56.2567
56.2539
56.2512
56.2484
56.2457
56.2429
56.2402
56.2374
56.2347
56.2319
56.2292
56.2264
56.2237
56.2209
56.2182
56.2154
56.2127
56.2099
56.2072
56.2045
56.2017
56.199
56.1962
56.1935
56.1907
56.188
56.1853
56.1825
56.1798
56.177
56.1743
56.1716
56.1688
56.1661
56.1633
56.1606
56.1579
56.1551
56.1524
56.1497
56.1469
56.1442
56.1415
56.1387
56.136
56.1333
56.1305
56.1278
56.1251
56.1223
56.1196
56.1169
56.1141
56.1114
56.1087
56.1059
56.1032
56.1005
56.0977
56.095
56.0923
56.0896
56.0868
56.0841
56.0814
56.0787
56.0759
56.0732
56.0705
56.0678
56.065
56.0623
56.0596
56.0569
56.0541
56.0514
56.0487
56.046
56.0433
56.0405
56.0378
56.0351
56.0324
56.0297
56.0269
56.0242
56.0215
56.0188
56.0161
56.0133
56.0106
56.0079
56.0052
56.0025
55.9998
55.997
55.9943
55.9916
55.9889
55.9862
55.9835
55.9808
55.9781
55.9753
55.9726
55.9699
55.9672
55.9645
55.9618
55.9591
55.9564
55.9537
55.951
55.9482
55.9455
55.9428
55.9401
55.9374
55.9347
55.932
55.9293
55.9266
55.9239
55.9212
55.9185
55.9158
55.9131
55.9104
55.9077
55.905
55.9023
55.8996
55.8969
55.8942
55.8915
55.8888
55.8861
55.8834
55.8807
55.878
55.8753
55.8726
55.8699
55.8672
55.8645
55.8618
55.8591
55.8564
55.8537
55.851
55.8483
55.8456
55.8429
55.8402
55.8375
55.8349
55.8322
55.8295
55.8268
55.8241
55.8214
55.8187
55.816
55.8133
55.8106
55.808
55.8053
55.8026
55.7999
55.7972
55.7945
55.7918
55.7891
55.7865
55.7838
55.7811
55.7784
55.7757
55.773
55.7704
55.7677
55.765
55.7623
55.7596
55.7569
55.7543
55.7516
55.7489
55.7462
55.7435
55.7409
55.7382
55.7355
55.7328
55.7302
55.7275
55.7248
55.7221
55.7195
55.7168
55.7141
55.7114
55.7088
55.7061
55.7034
55.7007
55.6981
55.6954
55.6927
55.69
55.6874
55.6847
55.682
55.6794
55.6767
55.674
55.6713
55.6687
55.666
55.6633
55.6607
55.658
55.6553
55.6527
55.65
55.6473
55.6447
55.642
55.6393
55.6367
55.634
55.6314
55.6287
55.626
55.6234
55.6207
55.618
55.6154
55.6127
55.6101
55.6074
55.6047
55.6021
55.5994
55.5968
55.5941
55.5914
55.5888
55.5861
55.5835
55.5808
55.5782
55.5755
55.5729
55.5702
55.5675
55.5649
55.5622
55.5596
55.5569
55.5543
55.5516
55.549
55.5463
55.5437
55.541
55.5384
55.5357
55.5331
55.5304
55.5278
55.5251
55.5225
55.5198
55.5172
55.5145
55.5119
55.5092
55.5066
55.504
55.5013
55.4987
55.496
55.4934
55.4907
55.4881
55.4854
55.4828
55.4802
55.4775
55.4749
55.4722
55.4696
55.467
55.4643
55.4617
55.459
55.4564
55.4538
55.4511
55.4485
55.4458
55.4432
55.4406
55.4379
55.4353
55.4327
55.43
55.4274
55.4248
55.4221
55.4195
55.4169
55.4142
55.4116
55.409
55.4063
55.4037
55.4011
55.3984
55.3958
55.3932
55.3905
55.3879
55.3853
55.3827
55.38
55.3774
55.3748
55.3722
55.3695
55.3669
55.3643
55.3616
55.359
55.3564
55.3538
55.3512
55.3485
55.3459
55.3433
55.3407
55.338
55.3354
55.3328
55.3302
55.3276
55.3249
55.3223
55.3197
55.3171
55.3145
55.3118
55.3092
55.3066
55.304
55.3014
55.2988
55.2961
55.2935
55.2909
55.2883
55.2857
55.2831
55.2804
55.2778
55.2752
55.2726
55.27
55.2674
55.2648
55.2622
55.2596
55.2569
55.2543
55.2517
55.2491
55.2465
55.2439
55.2413
55.2387
55.2361
55.2335
55.2309
55.2282
55.2256
55.223
55.2204
55.2178
55.2152
55.2126
55.21
55.2074
55.2048
55.2022
55.1996
55.197
55.1944
55.1918
55.1892
55.1866
55.184
55.1814
55.1788
55.1762
55.1736
55.171
55.1684
55.1658
55.1632
55.1606
55.158
55.1554
55.1528
55.1502
55.1476
55.145
55.1424
55.1399
55.1373
55.1347
55.1321
55.1295
55.1269
55.1243
55.1217
55.1191
55.1165
55.1139
55.1113
55.1088
55.1062
55.1036
55.101
55.0984
55.0958
55.0932
55.0906
55.0881
55.0855
55.0829
55.0803
55.0777
55.0751
55.0725
55.07
55.0674
55.0648
55.0622
55.0596
55.057
55.0545
55.0519
55.0493
55.0467
55.0441
55.0416
55.039
55.0364
55.0338
55.0312
55.0287
55.0261
55.0235
55.0209
55.0184
55.0158
55.0132
55.0106
55.0081
55.0055
55.0029
55.0003
54.9978
54.9952
54.9926
54.99
54.9875
54.9849
54.9823
54.9798
54.9772
54.9746
54.9721
54.9695
54.9669
54.9643
54.9618
54.9592
54.9566
54.9541
54.9515
54.9489
54.9464
54.9438
54.9412
54.9387
54.9361
54.9336
54.931
54.9284
54.9259
54.9233
54.9207
54.9182
54.9156
54.913
54.9105
54.9079
54.9054
54.9028
54.9002
54.8977
54.8951
54.8926
54.89
54.8875
54.8849
54.8823
54.8798
54.8772
54.8747
54.8721
54.8696
54.867
54.8645
54.8619
54.8593
54.8568
54.8542
54.8517
54.8491
54.8466
54.844
54.8415
54.8389
54.8364
54.8338
54.8313
54.8287
54.8262
54.8236
54.8211
54.8185
54.816
54.8134
54.8109
54.8084
54.8058
54.8033
54.8007
54.7982
54.7956
54.7931
54.7905
54.788
54.7855
54.7829
54.7804
54.7778
54.7753
54.7727
54.7702
54.7677
54.7651
54.7626
54.76
54.7575
54.755
54.7524
54.7499
54.7474
54.7448
54.7423
54.7397
54.7372
54.7347
54.7321
54.7296
54.7271
54.7245
54.722
54.7195
54.7169
54.7144
54.7119
54.7093
54.7068
54.7043
54.7017
54.6992
54.6967
54.6942
54.6916
54.6891
54.6866
54.684
54.6815
54.679
54.6765
54.6739
54.6714
54.6689
54.6663
54.6638
54.6613
54.6588
54.6563
54.6537
54.6512
54.6487
54.6462
54.6436
54.6411
54.6386
54.6361
54.6335
54.631
54.6285
54.626
54.6235
54.6209
54.6184
54.6159
54.6134
54.6109
54.6084
54.6058
54.6033
54.6008
54.5983
54.5958
54.5933
54.5907
54.5882
54.5857
54.5832
54.5807
54.5782
54.5757
54.5732
54.5706
54.5681
54.5656
54.5631
54.5606
54.5581
54.5556
54.5531
54.5506
54.5481
54.5455
54.543
54.5405
54.538
54.5355
54.533
54.5305
54.528
54.5255
54.523
54.5205
54.518
54.5155
54.513
54.5105
54.508
54.5055
54.503
54.5005
54.498
54.4955
54.493
54.4905
54.488
54.4855
54.483
54.4805
54.478
54.4755
54.473
54.4705
54.468
54.4655
54.463
54.4605
54.458
54.4555
54.453
54.4505
54.448
54.4455
54.443
54.4405
54.438
54.4355
54.4331
54.4306
54.4281
54.4256
54.4231
54.4206
54.4181
54.4156
54.4131
54.4106
54.4082
54.4057
54.4032
54.4007
54.3982
54.3957
54.3932
54.3907
54.3883
54.3858
54.3833
54.3808
54.3783
54.3758
54.3734
54.3709
54.3684
54.3659
54.3634
54.3609
54.3585
54.356
54.3535
54.351
54.3485
54.3461
54.3436
54.3411
54.3386
54.3362
54.3337
54.3312
54.3287
54.3262
54.3238
54.3213
54.3188
54.3163
54.3139
54.3114
54.3089
54.3064
54.304
54.3015
54.299
54.2966
54.2941
54.2916
54.2891
54.2867
54.2842
54.2817
54.2793
54.2768
54.2743
54.2719
54.2694
54.2669
54.2645
54.262
54.2595
54.2571
54.2546
54.2521
54.2497
54.2472
54.2447
54.2423
54.2398
54.2373
54.2349
54.2324
54.2299
54.2275
54.225
54.2226
54.2201
54.2176
54.2152
54.2127
54.2103
54.2078
54.2053
54.2029
54.2004
54.198
54.1955
54.1931
54.1906
54.1881
54.1857
54.1832
54.1808
54.1783
54.1759
54.1734
54.171
54.1685
54.1661
54.1636
54.1612
54.1587
54.1563
54.1538
54.1513
54.1489
54.1464
54.144
54.1415
54.1391
54.1367
54.1342
54.1318
54.1293
54.1269
54.1244
54.122
54.1195
54.1171
54.1146
54.1122
54.1097
54.1073
54.1049
54.1024
54.1
54.0975
54.0951
54.0926
54.0902
54.0878
54.0853
54.0829
54.0804
54.078
54.0756
54.0731
54.0707
54.0682
54.0658
54.0634
54.0609
54.0585
54.0561
54.0536
54.0512
54.0487
54.0463
54.0439
54.0414
54.039
54.0366
54.0341
54.0317
54.0293
54.0268
54.0244
54.022
54.0195
54.0171
54.0147
54.0123
54.0098
54.0074
54.005
54.0025
54.0001
53.9977
53.9953
53.9928
53.9904
53.988
53.9855
53.9831
53.9807
53.9783
53.9758
53.9734
53.971
53.9686
53.9661
53.9637
53.9613
53.9589
53.9565
53.954
53.9516
53.9492
53.9468
53.9444
53.9419
53.9395
53.9371
53.9347
53.9323
53.9298
53.9274
53.925
53.9226
53.9202
53.9178
53.9153
53.9129
53.9105
53.9081
53.9057
53.9033
53.9009
53.8984
53.896
53.8936
53.8912
53.8888
53.8864
53.884
53.8816
53.8791
53.8767
53.8743
53.8719
53.8695
53.8671
53.8647
53.8623
53.8599
53.8575
53.8551
53.8527
53.8502
53.8478
53.8454
53.843
53.8406
53.8382
53.8358
53.8334
53.831
53.8286
53.8262
53.8238
53.8214
53.819
53.8166
53.8142
53.8118
53.8094
53.807
53.8046
53.8022
53.7998
53.7974
53.795
53.7926
53.7902
53.7878
53.7854
53.783
53.7806
53.7782
53.7758
53.7734
53.771
53.7686
53.7663
53.7639
53.7615
53.7591
53.7567
53.7543
53.7519
53.7495
53.7471
53.7447
53.7423
53.7399
53.7376
53.7352
53.7328
53.7304
53.728
53.7256
53.7232
53.7208
53.7185
53.7161
53.7137
53.7113
53.7089
53.7065
53.7041
53.7018
53.6994
53.697
53.6946
53.6922
53.6898
53.6875
53.6851
53.6827
53.6803
53.6779
53.6756
53.6732
53.6708
53.6684
53.666
53.6637
53.6613
53.6589
53.6565
53.6541
53.6518
53.6494
53.647
53.6446
53.6423
53.6399
53.6375
53.6351
53.6328
53.6304
53.628
53.6256
53.6233
53.6209
53.6185
53.6162
53.6138
53.6114
53.609
53.6067
53.6043
53.6019
53.5996
53.5972
53.5948
53.5925
53.5901
53.5877
53.5854
53.583
53.5806
53.5783
53.5759
53.5735
53.5712
53.5688
53.5664
53.5641
53.5617
53.5594
53.557
53.5546
53.5523
53.5499
53.5475
53.5452
53.5428
53.5405
53.5381
53.5357
53.5334
53.531
53.5287
53.5263
53.524
53.5216
53.5192
53.5169
53.5145
53.5122
53.5098
53.5075
53.5051
53.5027
53.5004
53.498
53.4957
53.4933
53.491
53.4886
53.4863
53.4839
53.4816
53.4792
53.4769
53.4745
53.4722
53.4698
53.4675
53.4651
53.4628
53.4604
53.4581
53.4557
53.4534
53.451
53.4487
53.4463
53.444
53.4417
53.4393
53.437
53.4346
53.4323
53.4299
53.4276
53.4252
53.4229
53.4206
53.4182
53.4159
53.4135
53.4112
53.4089
53.4065
53.4042
53.4018
53.3995
53.3972
53.3948
53.3925
53.3901
53.3878
53.3855
53.3831
53.3808
53.3785
53.3761
53.3738
53.3715
53.3691
53.3668
53.3645
53.3621
53.3598
53.3575
53.3551
53.3528
53.3505
53.3481
53.3458
53.3435
53.3411
53.3388
53.3365
53.3342
53.3318
53.3295
53.3272
53.3248
53.3225
53.3202
53.3179
53.3155
53.3132
53.3109
53.3086
53.3062
53.3039
53.3016
53.2993
53.2969
53.2946
53.2923
53.29
53.2876
53.2853
53.283
53.2807
53.2784
53.276
53.2737
53.2714
53.2691
53.2668
53.2644
53.2621
53.2598
53.2575
53.2552
53.2529
53.2505
53.2482
53.2459
53.2436
53.2413
53.239
53.2366
53.2343
53.232
53.2297
53.2274
53.2251
53.2228
53.2205
53.2181
53.2158
53.2135
53.2112
53.2089
53.2066
53.2043
53.202
53.1997
53.1974
53.1951
53.1927
53.1904
53.1881
53.1858
53.1835
53.1812
53.1789
53.1766
53.1743
53.172
53.1697
53.1674
53.1651
53.1628
53.1605
53.1582
53.1559
53.1536
53.1513
53.149
53.1467
53.1444
53.1421
53.1398
53.1375
53.1352
53.1329
53.1306
53.1283
53.126
53.1237
53.1214
53.1191
53.1168
53.1145
53.1122
53.1099
53.1076
53.1053
53.103
53.1007
53.0984
53.0961
53.0938
53.0915
53.0893
53.087
53.0847
53.0824
53.0801
53.0778
53.0755
53.0732
53.0709
53.0686
53.0664
53.0641
53.0618
53.0595
53.0572
53.0549
53.0526
53.0503
53.0481
53.0458
53.0435
53.0412
53.0389
53.0366
53.0344
53.0321
53.0298
53.0275
53.0252
53.0229
53.0207
53.0184
53.0161
53.0138
53.0115
53.0093
53.007
53.0047
53.0024
53.0001
52.9979
52.9956
52.9933
52.991
52.9888
52.9865
52.9842
52.9819
52.9797
52.9774
52.9751
52.9728
52.9706
52.9683
52.966
52.9637
52.9615
52.9592
52.9569
52.9546
52.9524
52.9501
52.9478
52.9456
52.9433
52.941
52.9388
52.9365
52.9342
52.932
52.9297
52.9274
52.9251
52.9229
52.9206
52.9184
52.9161
52.9138
52.9116
52.9093
52.907
52.9048
52.9025
52.9002
52.898
52.8957
52.8934
52.8912
52.8889
52.8867
52.8844
52.8821
52.8799
52.8776
52.8754
52.8731
52.8708
52.8686
52.8663
52.8641
52.8618
52.8596
52.8573
52.855
52.8528
52.8505
52.8483
52.846
52.8438
52.8415
52.8393
52.837
52.8348
52.8325
52.8302
52.828
52.8257
52.8235
52.8212
52.819
52.8167
52.8145
52.8122
52.81
52.8077
52.8055
52.8032
52.801
52.7988
52.7965
52.7943
52.792
52.7898
52.7875
52.7853
52.783
52.7808
52.7785
52.7763
52.7741
52.7718
52.7696
52.7673
52.7651
52.7628
52.7606
52.7584
52.7561
52.7539
52.7516
52.7494
52.7472
52.7449
52.7427
52.7404
52.7382
52.736
52.7337
52.7315
52.7292
52.727
52.7248
52.7225
52.7203
52.7181
52.7158
52.7136
52.7114
52.7091
52.7069
52.7047
52.7024
52.7002
52.698
52.6957
52.6935
52.6913
52.689
52.6868
52.6846
52.6824
52.6801
52.6779
52.6757
52.6734
52.6712
52.669
52.6668
52.6645
52.6623
52.6601
52.6579
52.6556
52.6534
52.6512
52.649
52.6467
52.6445
52.6423
52.6401
52.6378
52.6356
52.6334
52.6312
52.6289
52.6267
52.6245
52.6223
52.6201
52.6178
52.6156
52.6134
52.6112
52.609
52.6068
52.6045
52.6023
52.6001
52.5979
52.5957
52.5935
52.5912
52.589
52.5868
52.5846
52.5824
52.5802
52.578
52.5757
52.5735
52.5713
52.5691
52.5669
52.5647
52.5625
52.5603
52.558
52.5558
52.5536
52.5514
52.5492
52.547
52.5448
52.5426
52.5404
52.5382
52.536
52.5338
52.5315
52.5293
52.5271
52.5249
52.5227
52.5205
52.5183
52.5161
52.5139
52.5117
52.5095
52.5073
52.5051
52.5029
52.5007
52.4985
52.4963
52.4941
52.4919
52.4897
52.4875
52.4853
52.4831
52.4809
52.4787
52.4765
52.4743
52.4721
52.4699
52.4677
52.4655
52.4633
52.4611
52.4589
52.4567
52.4545
52.4524
52.4502
52.448
52.4458
52.4436
52.4414
52.4392
52.437
52.4348
52.4326
52.4304
52.4282
52.426
52.4239
52.4217
52.4195
52.4173
52.4151
52.4129
52.4107
52.4085
52.4064
52.4042
52.402
52.3998
52.3976
52.3954
52.3932
52.3911
52.3889
52.3867
52.3845
52.3823
52.3801
52.378
52.3758
52.3736
52.3714
52.3692
52.3671
52.3649
52.3627
52.3605
52.3583
52.3562
52.354
52.3518
52.3496
52.3474
52.3453
52.3431
52.3409
52.3387
52.3366
52.3344
52.3322
52.33
52.3279
52.3257
52.3235
52.3213
52.3192
52.317
52.3148
52.3126
52.3105
52.3083
52.3061
52.304
52.3018
52.2996
52.2975
52.2953
52.2931
52.2909
52.2888
52.2866
52.2844
52.2823
52.2801
52.2779
52.2758
52.2736
52.2714
52.2693
52.2671
52.2649
52.2628
52.2606
52.2585
52.2563
52.2541
52.252
52.2498
52.2476
52.2455
52.2433
52.2412
52.239
52.2368
52.2347
52.2325
52.2304
52.2282
52.226
52.2239
52.2217
52.2196
52.2174
52.2153
52.2131
52.2109
52.2088
52.2066
52.2045
52.2023
52.2002
52.198
52.1959
52.1937
52.1916
52.1894
52.1872
52.1851
52.1829
52.1808
52.1786
52.1765
52.1743
52.1722
52.17
52.1679
52.1657
52.1636
52.1614
52.1593
52.1572
52.155
52.1529
52.1507
52.1486
52.1464
52.1443
52.1421
52.14
52.1378
52.1357
52.1335
52.1314
52.1293
52.1271
52.125
52.1228
52.1207
52.1186
52.1164
52.1143
52.1121
52.11
52.1078
52.1057
52.1036
52.1014
52.0993
52.0972
52.095
52.0929
52.0907
52.0886
52.0865
52.0843
52.0822
52.0801
52.0779
52.0758
52.0737
52.0715
52.0694
52.0673
52.0651
52.063
52.0609
52.0587
52.0566
52.0545
52.0523
52.0502
52.0481
52.0459
52.0438
52.0417
52.0396
52.0374
52.0353
52.0332
52.031
52.0289
52.0268
52.0247
52.0225
52.0204
52.0183
52.0162
52.014
52.0119
52.0098
52.0077
52.0055
52.0034
52.0013
51.9992
51.997
51.9949
51.9928
51.9907
51.9886
51.9864
51.9843
51.9822
51.9801
51.978
51.9758
51.9737
51.9716
51.9695
51.9674
51.9652
51.9631
51.961